-4.995 	500 	8.81148e-13 	1.5e+07
-4.985 	500 	8.13367e-13 	1.5e+07
-4.975 	500 	1.35561e-13 	1.5e+07
-4.965 	500 	2.03342e-13 	1.5e+07
-4.955 	500 	6.10026e-13 	1.5e+07
-4.945 	500 	5.42245e-13 	1.5e+07
-4.935 	500 	2.83642e-27 	1.5e+07
-4.925 	500 	2.83914e-27 	1.5e+07
-4.915 	500 	5.42245e-13 	1.5e+07
-4.905 	500 	6.10026e-13 	1.5e+07
-4.895 	500 	2.0332e-12 	1.5e+07
-4.885 	500 	1.49099e-12 	1.5e+07
-4.875 	500 	6.77806e-14 	1.5e+07
-4.865 	500 	6.14044e-27 	1.5e+07
-4.855 	500 	5.37048e-78 	1.5e+07
-4.845 	500 	5.20153e-27 	1.5e+07
-4.835 	500 	2.03342e-13 	1.5e+07
-4.825 	500 	2.71122e-13 	1.5e+07
-4.815 	500 	3.41996e-26 	1.5e+07
-4.805 	500 	1.21991e-12 	1.5e+07
-4.795 	500 	9.48758e-13 	1.5e+07
-4.785 	500 	5.42245e-13 	1.5e+07
-4.775 	500 	6.10026e-13 	1.5e+07
-4.765 	500 	8.81148e-13 	1.5e+07
-4.755 	500 	1.35561e-13 	1.5e+07
-4.745 	500 	5.67284e-27 	1.5e+07
-4.735 	500 	6.96864e-77 	1.5e+07
-4.725 	500 	8.13367e-13 	1.5e+07
-4.715 	500 	5.0121e-35 	1.5e+07
-4.705 	500 	6.77787e-13 	1.5e+07
-4.695 	500 	6.14956e-27 	1.5e+07
-4.685 	500 	3.59159e-12 	1.5e+07
-4.675 	500 	3.2528e-12 	1.5e+07
-4.665 	500 	4.06684e-13 	1.5e+07
-4.655 	500 	3.38903e-13 	1.5e+07
-4.645 	500 	6.146e-27 	1.5e+07
-4.635 	500 	6.77806e-13 	1.5e+07
-4.625 	500 	8.81148e-13 	1.5e+07
-4.615 	500 	2.71122e-18 	1.5e+07
-4.605 	500 	3.52459e-17 	1.5e+07
-4.595 	500 	4.55645e-36 	1.5e+07
-4.585 	500 	8.81148e-13 	1.5e+07
-4.575 	500 	6.77806e-13 	1.5e+07
-4.565 	500 	1.89095e-27 	1.5e+07
-4.555 	500 	3.7781e-27 	1.5e+07
-4.545 	500 	1.82987e-12 	1.5e+07
-4.535 	500 	1.28766e-12 	1.5e+07
-4.525 	500 	2.16898e-17 	1.5e+07
-4.515 	500 	8.81148e-13 	1.5e+07
-4.505 	500 	2.03342e-13 	1.5e+07
-4.495 	500 	5.2228e-27 	1.5e+07
-4.485 	500 	2.58439e-116 	1.5e+07
-4.475 	500 	9.25541e-83 	1.5e+07
-4.465 	500 	5.67323e-27 	1.5e+07
-4.455 	500 	1.35561e-13 	1.5e+07
-4.445 	500 	2.03342e-13 	1.5e+07
-4.435 	500 	1.82266e-35 	1.5e+07
-4.425 	500 	5.42245e-13 	1.5e+07
-4.415 	500 	4.74464e-13 	1.5e+07
-4.405 	500 	3.30732e-27 	1.5e+07
-4.395 	500 	2.36433e-27 	1.5e+07
-4.385 	500 	6.10026e-13 	1.5e+07
-4.375 	500 	6.77806e-13 	1.5e+07
-4.365 	500 	1.35561e-13 	1.5e+07
-4.355 	500 	0 	1.5e+07
-4.345 	500 	0 	1.5e+07
-4.335 	500 	6.77806e-14 	1.5e+07
-4.325 	500 	1.35561e-13 	1.5e+07
-4.315 	500 	2.23652e-12 	1.5e+07
-4.305 	500 	2.10091e-12 	1.5e+07
-4.295 	500 	3.38903e-13 	1.5e+07
-4.285 	500 	4.74464e-13 	1.5e+07
-4.275 	500 	1.82984e-12 	1.5e+07
-4.265 	500 	1.0843e-12 	1.5e+07
-4.255 	500 	1.4233e-12 	1.5e+07
-4.245 	500 	1.28765e-12 	1.5e+07
-4.235 	500 	8.81148e-13 	1.5e+07
-4.225 	500 	6.78105e-14 	1.5e+07
-4.215 	500 	2.15706e-28 	1.5e+07
-4.205 	500 	6.77806e-14 	1.5e+07
-4.195 	500 	8.81148e-13 	1.5e+07
-4.185 	500 	0 	1.5e+07
-4.175 	500 	6.10026e-13 	1.5e+07
-4.165 	500 	3.38903e-13 	1.5e+07
-4.155 	500 	0 	1.5e+07
-4.145 	500 	4.74464e-13 	1.5e+07
-4.135 	500 	1.96542e-12 	1.5e+07
-4.125 	500 	2.10093e-12 	1.5e+07
-4.115 	500 	4.73156e-27 	1.5e+07
-4.105 	500 	9.44986e-28 	1.5e+07
-4.095 	500 	8.13367e-13 	1.5e+07
-4.085 	500 	8.81148e-13 	1.5e+07
-4.075 	500 	6.77806e-14 	1.5e+07
-4.065 	500 	0 	1.5e+07
-4.055 	500 	1.89067e-26 	1.5e+07
-4.045 	500 	1.15212e-12 	1.5e+07
-4.035 	500 	1.55881e-12 	1.5e+07
-4.025 	500 	6.15464e-27 	1.5e+07
-4.015 	500 	4.74464e-13 	1.5e+07
-4.005 	500 	5.42245e-13 	1.5e+07
-3.995 	500 	1.82266e-35 	1.5e+07
-3.985 	500 	6.77725e-13 	1.5e+07
-3.975 	500 	7.45497e-13 	1.5e+07
-3.965 	500 	6.77806e-14 	1.5e+07
-3.955 	500 	1.95654e-28 	1.5e+07
-3.945 	500 	8.81148e-13 	1.5e+07
-3.935 	500 	7.45587e-13 	1.5e+07
-3.925 	500 	1.55866e-12 	1.5e+07
-3.915 	500 	1.15209e-12 	1.5e+07
-3.905 	500 	3.38903e-13 	1.5e+07
-3.895 	500 	8.13369e-13 	1.5e+07
-3.885 	500 	4.74464e-13 	1.5e+07
-3.875 	500 	3.38903e-13 	1.5e+07
-3.865 	500 	2.71122e-13 	1.5e+07
-3.855 	500 	1.41742e-27 	1.5e+07
-3.845 	500 	7.45587e-13 	1.5e+07
-3.835 	500 	8.13367e-13 	1.5e+07
-3.825 	500 	5.59948e-26 	1.5e+07
-3.815 	500 	2.03415e-13 	1.5e+07
-3.805 	500 	1.01665e-12 	1.5e+07
-3.795 	500 	2.03342e-13 	1.5e+07
-3.785 	500 	2.71122e-13 	1.5e+07
-3.775 	500 	1.83637e-116 	1.5e+07
-3.765 	500 	3.30745e-27 	1.5e+07
-3.755 	500 	4.74464e-13 	1.5e+07
-3.745 	500 	5.42245e-13 	1.5e+07
-3.735 	500 	6.10036e-13 	1.5e+07
-3.725 	500 	8.81121e-13 	1.5e+07
-3.715 	500 	1.35561e-13 	1.5e+07
-3.705 	500 	9.95361e-27 	1.5e+07
-3.695 	500 	2.64313e-12 	1.5e+07
-3.685 	500 	2.43981e-12 	1.5e+07
-3.675 	500 	8.55092e-27 	1.5e+07
-3.665 	500 	0 	1.5e+07
-3.655 	500 	2.71122e-13 	1.5e+07
-3.645 	500 	1.42328e-12 	1.5e+07
-3.635 	500 	1.82996e-12 	1.5e+07
-3.625 	500 	8.8111e-13 	1.5e+07
-3.615 	500 	6.15553e-27 	1.5e+07
-3.605 	500 	6.10026e-13 	1.5e+07
-3.595 	500 	6.77806e-13 	1.5e+07
-3.585 	500 	6.06594e-77 	1.5e+07
-3.575 	500 	4.72948e-28 	1.5e+07
-3.565 	500 	8.81148e-13 	1.5e+07
-3.555 	500 	8.13338e-13 	1.5e+07
-3.545 	500 	2.71307e-13 	1.5e+07
-3.535 	500 	1.08445e-12 	1.5e+07
-3.525 	500 	1.0506e-12 	1.5e+07
-3.515 	500 	3.38903e-13 	1.5e+07
-3.505 	500 	4.06684e-13 	1.5e+07
-3.495 	500 	4.06684e-13 	1.5e+07
-3.485 	500 	3.38903e-13 	1.5e+07
-3.475 	500 	2.71112e-13 	1.5e+07
-3.465 	500 	4.06629e-13 	1.5e+07
-3.455 	500 	1.38918e-12 	1.5e+07
-3.445 	500 	1.32165e-12 	1.5e+07
-3.435 	500 	4.40468e-13 	1.5e+07
-3.425 	500 	8.8114e-13 	1.5e+07
-3.415 	500 	7.45587e-13 	1.5e+07
-3.405 	500 	1.42145e-27 	1.5e+07
-3.395 	500 	6.10026e-13 	1.5e+07
-3.385 	500 	5.42245e-13 	1.5e+07
-3.375 	500 	1.28767e-12 	1.5e+07
-3.365 	500 	1.82999e-12 	1.5e+07
-3.355 	500 	5.42245e-13 	1.5e+07
-3.345 	500 	2.71122e-13 	1.5e+07
-3.335 	500 	2.03342e-13 	1.5e+07
-3.325 	500 	5.21009e-27 	1.5e+07
-3.315 	500 	4.72422e-28 	1.5e+07
-3.305 	500 	8.81148e-13 	1.5e+07
-3.295 	500 	5.08436e-13 	1.5e+07
-3.285 	500 	8.81132e-13 	1.5e+07
-3.275 	500 	8.81077e-13 	1.5e+07
-3.265 	500 	1.93006e-27 	1.5e+07
-3.255 	500 	8.81148e-13 	1.5e+07
-3.245 	500 	4.74464e-13 	1.5e+07
-3.235 	500 	3.32038e-27 	1.5e+07
-3.225 	500 	3.3889e-13 	1.5e+07
-3.215 	500 	2.71112e-13 	1.5e+07
-3.205 	500 	6.77779e-13 	1.5e+07
-3.195 	500 	7.45557e-13 	1.5e+07
-3.185 	500 	6.77806e-14 	1.5e+07
-3.175 	500 	1.32151e-12 	1.5e+07
-3.165 	500 	8.47168e-13 	1.5e+07
-3.155 	500 	7.45497e-13 	1.5e+07
-3.145 	500 	1.35553e-12 	1.5e+07
-3.135 	500 	6.10026e-13 	1.5e+07
-3.125 	500 	3.38903e-13 	1.5e+07
-3.115 	500 	1.35563e-12 	1.5e+07
-3.105 	500 	2.03472e-13 	1.5e+07
-3.095 	500 	5.08273e-13 	1.5e+07
-3.085 	500 	4.06618e-13 	1.5e+07
-3.075 	500 	7.45613e-13 	1.5e+07
-3.065 	500 	7.45587e-13 	1.5e+07
-3.055 	500 	5.57842e-78 	1.5e+07
-3.045 	500 	6.25661e-27 	1.5e+07
-3.035 	500 	6.77806e-14 	1.5e+07
-3.025 	500 	1.76222e-12 	1.5e+07
-3.015 	500 	8.81093e-13 	1.5e+07
-3.005 	500 	1.21998e-12 	1.5e+07
-2.995 	500 	1.45812e-39 	1.5e+07
-2.985 	500 	1.08439e-12 	1.5e+07
-2.975 	500 	2.37175e-13 	1.5e+07
-2.965 	500 	8.81083e-13 	1.5e+07
-2.955 	500 	1.21988e-12 	1.5e+07
-2.945 	500 	6.77725e-13 	1.5e+07
-2.935 	500 	5.92363e-35 	1.5e+07
-2.925 	500 	4.72892e-28 	1.5e+07
-2.915 	500 	8.81113e-13 	1.5e+07
-2.905 	500 	3.25347e-17 	1.5e+07
-2.895 	500 	5.76192e-13 	1.5e+07
-2.885 	500 	1.76197e-12 	1.5e+07
-2.875 	500 	1.82978e-12 	1.5e+07
-2.865 	500 	1.28758e-12 	1.5e+07
-2.855 	500 	1.08439e-12 	1.5e+07
-2.845 	500 	3.31286e-27 	1.5e+07
-2.835 	500 	3.38862e-13 	1.5e+07
-2.825 	500 	5.4227e-13 	1.5e+07
-2.815 	500 	1.79603e-12 	1.5e+07
-2.805 	500 	1.62643e-12 	1.5e+07
-2.795 	500 	5.68831e-27 	1.5e+07
-2.785 	500 	5.24138e-40 	1.5e+07
-2.775 	500 	8.13367e-13 	1.5e+07
-2.765 	500 	7.45587e-13 	1.5e+07
-2.755 	500 	8.81148e-13 	1.5e+07
-2.745 	500 	4.25036e-27 	1.5e+07
-2.735 	500 	3.38903e-13 	1.5e+07
-2.725 	500 	8.81148e-13 	1.5e+07
-2.715 	500 	8.47257e-13 	1.5e+07
-2.705 	500 	2.36913e-27 	1.5e+07
-2.695 	500 	6.10026e-13 	1.5e+07
-2.685 	500 	6.77806e-13 	1.5e+07
-2.675 	500 	1.35561e-13 	1.5e+07
-2.665 	500 	5.08354e-13 	1.5e+07
-2.655 	500 	8.81148e-13 	1.5e+07
-2.645 	500 	4.73185e-28 	1.5e+07
-2.635 	500 	0 	1.5e+07
-2.625 	500 	4.10082e-35 	1.5e+07
-2.615 	500 	2.71261e-13 	1.5e+07
-2.605 	500 	1.55875e-12 	1.5e+07
-2.595 	500 	8.13369e-13 	1.5e+07
-2.585 	500 	1.76213e-12 	1.5e+07
-2.575 	500 	7.79309e-13 	1.5e+07
-2.565 	500 	6.10026e-13 	1.5e+07
-2.555 	500 	2.03342e-13 	1.5e+07
-2.545 	500 	1.35561e-13 	1.5e+07
-2.535 	500 	6.77806e-14 	1.5e+07
-2.525 	500 	1.32151e-12 	1.5e+07
-2.515 	500 	8.47168e-13 	1.5e+07
-2.505 	500 	1.35561e-13 	1.5e+07
-2.495 	500 	2.03342e-13 	1.5e+07
-2.485 	500 	8.20142e-35 	1.5e+07
-2.475 	500 	0 	1.5e+07
-2.465 	500 	1.27586e-39 	1.5e+07
-2.455 	500 	4.06684e-13 	1.5e+07
-2.445 	500 	6.77808e-13 	1.5e+07
-2.435 	500 	1.05041e-12 	1.5e+07
-2.425 	500 	1.55868e-12 	1.5e+07
-2.415 	500 	1.35561e-13 	1.5e+07
-2.405 	500 	6.77806e-14 	1.5e+07
-2.395 	500 	6.16918e-27 	1.5e+07
-2.385 	500 	4.55664e-36 	1.5e+07
-2.375 	500 	9.11328e-36 	1.5e+07
-2.365 	500 	0 	1.5e+07
-2.355 	500 	4.37906e-77 	1.5e+07
-2.345 	500 	5.42245e-13 	1.5e+07
-2.335 	500 	4.74464e-13 	1.5e+07
-2.325 	500 	4.06684e-13 	1.5e+07
-2.315 	500 	3.38903e-13 	1.5e+07
-2.305 	500 	4.27097e-27 	1.5e+07
-2.295 	500 	1.41831e-27 	1.5e+07
-2.285 	500 	7.45587e-13 	1.5e+07
-2.275 	500 	8.13367e-13 	1.5e+07
-2.265 	500 	8.81148e-13 	1.5e+07
-2.255 	500 	9.15022e-13 	1.5e+07
-2.245 	500 	2.03309e-13 	1.5e+07
-2.235 	500 	2.03342e-13 	1.5e+07
-2.225 	500 	2.71122e-13 	1.5e+07
-2.215 	500 	1.048e-34 	1.5e+07
-2.205 	500 	0 	1.5e+07
-2.195 	500 	3.18965e-35 	1.5e+07
-2.185 	500 	5.42245e-13 	1.5e+07
-2.175 	500 	1.22005e-12 	1.5e+07
-2.165 	500 	6.77806e-13 	1.5e+07
-2.155 	500 	9.47505e-28 	1.5e+07
-2.145 	500 	8.13367e-13 	1.5e+07
-2.135 	500 	-7.33585e-29 	1.5e+07
-2.125 	500 	9.15022e-13 	1.5e+07
-2.115 	500 	1.82974e-12 	1.5e+07
-2.105 	500 	1.11825e-12 	1.5e+07
-2.095 	500 	6.10026e-13 	1.5e+07
-2.085 	500 	1.52506e-12 	1.5e+07
-2.075 	500 	4.74464e-13 	1.5e+07
-2.065 	500 	3.3123e-27 	1.5e+07
-2.055 	500 	3.38903e-13 	1.5e+07
-2.045 	500 	2.71122e-13 	1.5e+07
-2.035 	500 	4.72508e-27 	1.5e+07
-2.025 	500 	1.35561e-13 	1.5e+07
-2.015 	500 	6.77806e-14 	1.5e+07
-2.005 	500 	8.81113e-13 	1.5e+07
-1.995 	500 	2.71122e-18 	1.5e+07
-1.985 	500 	4.47241e-12 	1.5e+07
-1.975 	500 	3.59137e-12 	1.5e+07
-1.965 	500 	1.22001e-12 	1.5e+07
-1.955 	500 	1.96547e-12 	1.5e+07
-1.945 	500 	3.52459e-17 	1.5e+07
-1.935 	500 	3.52459e-17 	1.5e+07
-1.925 	500 	3.65974e-12 	1.5e+07
-1.915 	500 	1.2201e-12 	1.5e+07
-1.905 	500 	1.69407e-12 	1.5e+07
-1.895 	500 	8.81083e-13 	1.5e+07
-1.885 	500 	8.47184e-13 	1.5e+07
-1.875 	500 	4.40468e-13 	1.5e+07
-1.865 	500 	1.41895e-25 	1.5e+07
-1.855 	500 	2.91401e-12 	1.5e+07
-1.845 	500 	8.80936e-13 	1.5e+07
-1.835 	500 	2.23631e-12 	1.5e+07
-1.825 	500 	2.23631e-12 	1.5e+07
-1.815 	500 	2.43947e-12 	1.5e+07
-1.805 	500 	4.06651e-13 	1.5e+07
-1.795 	500 	2.37192e-12 	1.5e+07
-1.785 	500 	2.57518e-12 	1.5e+07
-1.775 	500 	1.3555e-12 	1.5e+07
-1.765 	500 	5.42245e-18 	1.5e+07
-1.755 	500 	4.1336e-12 	1.5e+07
-1.745 	500 	5.28558e-12 	1.5e+07
-1.735 	500 	1.62657e-12 	1.5e+07
-1.725 	500 	1.89804e-12 	1.5e+07
-1.715 	500 	3.25299e-12 	1.5e+07
-1.705 	500 	1.35537e-12 	1.5e+07
-1.695 	500 	1.21975e-12 	1.5e+07
-1.685 	500 	3.18503e-12 	1.5e+07
-1.675 	500 	8.80936e-13 	1.5e+07
-1.665 	500 	2.20237e-12 	1.5e+07
-1.655 	500 	8.47298e-13 	1.5e+07
-1.645 	500 	6.09985e-13 	1.5e+07
-1.635 	500 	2.71095e-13 	1.5e+07
-1.625 	500 	8.13338e-13 	1.5e+07
-1.615 	500 	3.52459e-17 	1.5e+07
-1.605 	500 	3.52459e-17 	1.5e+07
-1.595 	500 	2.71174e-13 	1.5e+07
-1.585 	500 	2.03325e-13 	1.5e+07
-1.575 	500 	2.71101e-13 	1.5e+07
-1.565 	500 	1.762e-12 	1.5e+07
-1.555 	500 	1.13871e-16 	1.5e+07
-1.545 	500 	8.133e-13 	1.5e+07
-1.535 	500 	3.52459e-17 	1.5e+07
-1.525 	500 	8.20142e-35 	1.5e+07
-1.515 	500 	0 	1.5e+07
-1.505 	500 	1.82993e-12 	1.5e+07
-1.495 	500 	1.42331e-12 	1.5e+07
-1.485 	500 	1.12834e-25 	1.5e+07
-1.475 	500 	8.13305e-13 	1.5e+07
-1.465 	500 	1.86373e-12 	1.5e+07
-1.455 	500 	1.4572e-12 	1.5e+07
-1.445 	500 	5.42225e-13 	1.5e+07
-1.435 	500 	6.77787e-13 	1.5e+07
-1.425 	500 	8.133e-13 	1.5e+07
-1.415 	500 	2.03293e-13 	1.5e+07
-1.405 	500 	4.4055e-13 	1.5e+07
-1.395 	500 	1.4571e-12 	1.5e+07
-1.385 	500 	3.79494e-12 	1.5e+07
-1.375 	500 	2.23593e-12 	1.5e+07
-1.365 	500 	1.96546e-12 	1.5e+07
-1.355 	500 	1.40984e-16 	1.5e+07
-1.345 	500 	8.13183e-13 	1.5e+07
-1.335 	500 	3.65907e-12 	1.5e+07
-1.325 	500 	4.26913e-12 	1.5e+07
-1.315 	500 	3.59168e-12 	1.5e+07
-1.305 	500 	4.20164e-12 	1.5e+07
-1.295 	500 	1.15226e-12 	1.5e+07
-1.285 	500 	2.3718e-12 	1.5e+07
-1.275 	500 	3.72728e-12 	1.5e+07
-1.265 	500 	1.15216e-12 	1.5e+07
-1.255 	500 	1.01649e-12 	1.5e+07
-1.245 	500 	5.42229e-13 	1.5e+07
-1.235 	500 	8.13302e-13 	1.5e+07
-1.225 	500 	3.00818e-30 	1.5e+07
-1.215 	500 	2.71122e-18 	1.5e+07
-1.205 	500 	6.43983e-13 	1.5e+07
-1.195 	500 	1.32156e-12 	1.5e+07
-1.185 	500 	2.57525e-12 	1.5e+07
-1.175 	500 	1.0844e-12 	1.5e+07
-1.165 	500 	3.52459e-17 	1.5e+07
-1.155 	500 	3.18939e-35 	1.5e+07
-1.145 	500 	6.77808e-13 	1.5e+07
-1.135 	500 	2.7784e-12 	1.5e+07
-1.125 	500 	1.89756e-12 	1.5e+07
-1.115 	500 	1.01666e-12 	1.5e+07
-1.105 	500 	9.48796e-13 	1.5e+07
-1.095 	500 	1.76219e-12 	1.5e+07
-1.085 	500 	1.6266e-12 	1.5e+07
-1.075 	500 	3.52459e-17 	1.5e+07
-1.065 	500 	4.06784e-13 	1.5e+07
-1.055 	500 	5.42212e-13 	1.5e+07
-1.045 	500 	5.42201e-13 	1.5e+07
-1.035 	500 	1.62628e-12 	1.5e+07
-1.025 	500 	3.59169e-12 	1.5e+07
-1.015 	500 	3.38876e-13 	1.5e+07
-1.005 	500 	2.23651e-12 	1.5e+07
-0.995 	500 	1.49101e-12 	1.5e+07
-0.985 	500 	1.62663e-12 	1.5e+07
-0.975 	500 	9.48888e-13 	1.5e+07
-0.965 	500 	8.81077e-13 	1.5e+07
-0.955 	500 	6.77752e-14 	1.5e+07
-0.945 	500 	7.45502e-13 	1.5e+07
-0.935 	500 	2.03344e-13 	1.5e+07
-0.925 	500 	8.81042e-13 	1.5e+07
-0.915 	500 	6.77787e-13 	1.5e+07
-0.905 	500 	8.133e-13 	1.5e+07
-0.895 	500 	4.06635e-13 	1.5e+07
-0.885 	500 	5.4218e-13 	1.5e+07
-0.875 	500 	1.08449e-17 	1.5e+07
-0.865 	500 	2.03353e-13 	1.5e+07
-0.855 	500 	7.45563e-13 	1.5e+07
-0.845 	500 	2.71122e-18 	1.5e+07
-0.835 	500 	3.52459e-17 	1.5e+07
-0.825 	500 	6.78105e-14 	1.5e+07
-0.815 	500 	1.3555e-13 	1.5e+07
-0.805 	500 	6.77698e-13 	1.5e+07
-0.795 	500 	6.09963e-13 	1.5e+07
-0.785 	500 	2.16898e-17 	1.5e+07
-0.775 	500 	1.62673e-17 	1.5e+07
-0.765 	500 	1.69431e-12 	1.5e+07
-0.755 	500 	2.57528e-12 	1.5e+07
-0.745 	500 	1.9652e-12 	1.5e+07
-0.735 	500 	1.76219e-12 	1.5e+07
-0.725 	500 	1.01666e-12 	1.5e+07
-0.715 	500 	3.52459e-17 	1.5e+07
-0.705 	500 	7.04918e-17 	1.5e+07
-0.695 	500 	1.62661e-12 	1.5e+07
-0.685 	500 	3.52459e-17 	1.5e+07
-0.675 	500 	2.0338e-13 	1.5e+07
-0.665 	500 	8.81088e-13 	1.5e+07
-0.655 	500 	1.89736e-12 	1.5e+07
-0.645 	500 	2.91394e-12 	1.5e+07
-0.635 	500 	8.81077e-13 	1.5e+07
-0.625 	500 	3.38876e-13 	1.5e+07
-0.615 	500 	1.49108e-12 	1.5e+07
-0.605 	500 	1.55889e-12 	1.5e+07
-0.595 	500 	1.30139e-16 	1.5e+07
-0.585 	500 	3.25347e-17 	1.5e+07
-0.575 	500 	1.76219e-12 	1.5e+07
-0.565 	500 	1.6266e-12 	1.5e+07
-0.555 	500 	1.35656e-13 	1.5e+07
-0.545 	500 	2.03325e-13 	1.5e+07
-0.535 	500 	6.09976e-13 	1.5e+07
-0.525 	500 	5.42201e-13 	1.5e+07
-0.515 	500 	1.89725e-12 	1.5e+07
-0.505 	500 	2.10048e-12 	1.5e+07
-0.495 	500 	5.42215e-13 	1.5e+07
-0.485 	500 	8.81077e-13 	1.5e+07
-0.475 	500 	2.03325e-13 	1.5e+07
-0.465 	500 	7.45527e-13 	1.5e+07
-0.455 	500 	8.81077e-13 	1.5e+07
-0.445 	500 	8.81007e-13 	1.5e+07
-0.435 	500 	6.78294e-14 	1.5e+07
-0.425 	500 	3.72677e-12 	1.5e+07
-0.415 	500 	2.91364e-12 	1.5e+07
-0.405 	500 	5.96469e-17 	1.5e+07
-0.395 	500 	8.81091e-13 	1.5e+07
-0.385 	500 	8.13318e-13 	1.5e+07
-0.375 	500 	8.81096e-13 	1.5e+07
-0.365 	500 	6.7775e-13 	1.5e+07
-0.355 	500 	2.37199e-12 	1.5e+07
-0.345 	500 	2.03307e-12 	1.5e+07
-0.335 	500 	3.52459e-17 	1.5e+07
-0.325 	500 	6.78023e-14 	1.5e+07
-0.315 	500 	1.76212e-12 	1.5e+07
-0.305 	500 	1.69445e-12 	1.5e+07
-0.295 	500 	4.06683e-17 	1.5e+07
-0.285 	500 	4.75442e-33 	1.5e+07
-0.275 	500 	1.15209e-12 	1.5e+07
-0.265 	500 	3.38903e-13 	1.5e+07
-0.255 	500 	9.48834e-13 	1.5e+07
-0.245 	500 	8.81148e-13 	1.5e+07
-0.235 	500 	3.38903e-13 	1.5e+07
-0.225 	500 	2.71112e-13 	1.5e+07
-0.215 	500 	3.20649e-13 	1.5e+07
-0.205 	500 	1.11762e-10 	1.5e+07
-0.195 	500 	3.19522e-09 	1.5e+07
-0.185 	500 	5.28613e-08 	1.5e+07
-0.175 	500 	9.03005e-07 	1.5e+07
-0.165 	500 	1.34801e-05 	1.5e+07
-0.155 	500 	0.000174071 	1.5e+07
-0.145 	499.999 	0.00192109 	1.49999e+07
-0.135 	499.996 	0.0178423 	1.4999e+07
-0.125 	499.963 	0.135452 	1.49928e+07
-0.115 	499.783 	0.791476 	1.49576e+07
-0.105 	499.04 	3.49807 	1.48126e+07
-0.095 	496.841 	11.4935 	1.43904e+07
-0.085 	492.347 	27.9561 	1.35578e+07
-0.075 	485.757 	52.343 	1.24095e+07
-0.065 	478.054 	81.1872 	1.11712e+07
-0.055 	469.931 	111.944 	9.98285e+06
-0.045 	461.369 	143.485 	8.88628e+06
-0.035 	453.063 	175.513 	7.89383e+06
-0.025 	446.128 	207.62 	6.99555e+06
-0.015 	436.696 	240.012 	6.1881e+06
-0.005 	429.158 	272.495 	5.46231e+06
0.005 	422.949 	305.112 	4.81341e+06
0.015 	412.832 	337.741 	4.23578e+06
0.025 	403.217 	370.605 	3.71825e+06
0.035 	398.88 	403.872 	3.25512e+06
0.045 	396.104 	437.031 	2.84331e+06
0.055 	387.903 	469.845 	2.48345e+06
0.065 	374.799 	502.707 	2.1649e+06
0.075 	361.514 	536.075 	1.87915e+06
0.085 	351.507 	570.2 	1.6225e+06
0.095 	345.465 	605.081 	1.39346e+06
0.105 	342.219 	640.47 	1.19111e+06
0.115 	340.587 	676.377 	1.01535e+06
0.125 	338.115 	712.036 	861204
0.135 	338.373 	749.805 	733897
0.145 	339.371 	787.229 	621747
0.155 	349.94 	831.253 	532328
0.165 	363.572 	870.63 	427813
0.175 	373.3 	913.323 	382144
0.185 	401.02 	959.566 	304198
0.195 	411.297 	1001.82 	270911
0.205 	441.515 	1049.63 	220059
0.215 	451.736 	1091.39 	196037
0.225 	490.769 	1145.83 	169479
0.235 	519.189 	1191.6 	135317
0.245 	521.697 	1229.25 	117728
0.255 	524.78 	1276.72 	110151
0.265 	589.977 	1340.07 	95321.2
0.275 	634.343 	1391.3 	74041.3
0.285 	635.866 	1429.47 	64697.6
0.295 	634.995 	1475.51 	60548.1
0.305 	695.142 	1535.59 	52959.6
0.315 	730.422 	1583.93 	42469.1
0.325 	727.228 	1626.43 	38553.8
0.335 	760.157 	1686.62 	36321.6
0.345 	855.284 	1751.01 	28825.1
0.355 	881.62 	1795.22 	24329.8
0.365 	873.412 	1832.97 	21800.8
0.375 	850.478 	1877.58 	20369.3
0.385 	899.775 	1942.79 	19288.6
0.395 	1034.05 	2017.61 	15925.2
0.405 	1085.11 	2071.9 	12854.4
0.415 	1098.48 	2112.13 	11164.9
0.425 	1076.87 	2146.28 	10031.9
0.435 	1021.86 	2185.99 	9293.32
0.445 	1035.61 	2244.26 	8931.08
0.455 	1239.41 	2324.17 	7957.44
0.465 	1344.78 	2388.65 	6133.5
0.475 	1357.81 	2429.92 	5357.93
0.485 	1313.67 	2467.19 	4978.07
0.495 	1265.53 	2514.23 	4717.72
0.505 	1337.37 	2583.29 	4483.79
0.515 	1521.73 	2660.15 	3728.63
0.525 	1589.13 	2713.7 	3069.66
0.535 	1601.05 	2750.67 	2677.14
0.545 	1553.66 	2780.06 	2438.73
0.555 	1427.03 	2815.88 	2286.03
0.565 	1378.69 	2864.97 	2171.08
0.575 	1503.19 	2939.78 	2079.8
0.585 	1873.33 	3032.76 	1734.73
0.595 	1991.51 	3095.06 	1384.87
0.605 	1994.63 	3129.91 	1216.47
0.615 	1895.26 	3161.01 	1152.02
0.625 	1835.15 	3203.98 	1097.79
0.635 	1891.33 	3260.27 	995.574
0.645 	1940.49 	3309.2 	862.988
0.655 	1936.37 	3348.73 	770.543
0.665 	1875.42 	3388.87 	717.014
0.675 	1832.88 	3438.83 	681.695
0.685 	1968.74 	3510.95 	660.586
0.695 	2412.41 	3599.4 	583.354
0.705 	2565.6 	3658.85 	478.911
0.715 	2596.88 	3691.35 	438.562
0.725 	2615.98 	3718.94 	409.417
0.735 	2665.89 	3743.02 	386.384
0.745 	2728.47 	3771.08 	374.494
0.755 	2775.15 	3791.12 	343.429
0.765 	2969.93 	3800.41 	328.767
0.775 	3281.1 	3813.04 	328.529
0.785 	3634.63 	3821.38 	327.348
0.795 	4178.02 	3816.67 	320.196
0.805 	4786.79 	3793.1 	295.994
0.815 	5339.48 	3779.72 	291.94
0.825 	5726.79 	3786.14 	289.969
0.835 	5936.57 	3796.89 	285.993
0.845 	5997.22 	3804.01 	282.212
0.855 	6000 	3779.42 	268.69
0.865 	5914.46 	3637.35 	232.216
0.875 	4598.06 	3429.97 	210.479
0.885 	2537.03 	3173.01 	148.98
0.895 	987.561 	2589.51 	36.7236
0.905 	399.976 	269.924 	1.70907
0.915 	300.008 	0.0362752 	1.00018
0.925 	300 	1.59803e-06 	1
0.935 	300 	6.10908e-11 	1
0.945 	300 	4.36255e-13 	1
0.955 	300 	4.36105e-13 	1
0.965 	300 	5.08865e-13 	1
0.975 	300 	1.09053e-13 	1
0.985 	300 	1.89036e-12 	1
0.995 	300 	5.45812e-13 	1
1.005 	300 	9.8123e-13 	1
1.015 	300 	3.2727e-13 	1
1.025 	300 	4.36262e-13 	1
1.035 	300 	5.67221e-17 	1
1.045 	300 	1.46862e-39 	1
1.055 	300 	2.61794e-17 	1
1.065 	300 	1.16335e-12 	1
1.075 	300 	1.30883e-12 	1
1.085 	300 	1.19968e-12 	1
1.095 	300 	1.59951e-12 	1
1.105 	300 	1.45424e-13 	1
1.115 	300 	2.07981e-16 	1
1.125 	300 	4.36027e-13 	1
1.135 	300 	1.41781e-12 	1
1.145 	300 	1.09063e-12 	1
1.155 	300 	5.67221e-17 	1
1.165 	300 	3.49059e-17 	1
1.175 	300 	6.54402e-13 	1
1.185 	300 	2.54532e-13 	1
1.195 	300 	1.70867e-12 	1
1.205 	300 	2.29016e-12 	1
1.215 	300 	2.29016e-12 	1
1.225 	300 	2.90811e-13 	1
1.235 	300 	6.54188e-13 	1
1.245 	300 	1.41781e-12 	1
1.255 	300 	1.30875e-12 	1
1.265 	300 	3.0171e-12 	1
1.275 	300 	2.54457e-12 	1
1.285 	300 	4.72629e-13 	1
1.295 	300 	1.70872e-12 	1
1.305 	300 	1.68068e-26 	1
1.315 	300 	9.08895e-13 	1
1.325 	300 	1.9578e-32 	1
1.335 	300 	9.81564e-13 	1
1.345 	300 	1.09065e-12 	1
1.355 	300 	2.90886e-13 	1
1.365 	300 	3.35773e-26 	1
1.375 	300 	2.83531e-12 	1
1.385 	300 	3.05343e-12 	1
1.395 	300 	7.27309e-14 	1
1.405 	300 	4.36228e-13 	1
1.415 	300 	3.52404e-32 	1
1.425 	300 	5.45327e-13 	1
1.435 	300 	6.54374e-13 	1
1.445 	300 	9.81616e-13 	1
1.455 	300 	1.89045e-12 	1
1.465 	300 	1.45406e-13 	1
1.475 	300 	7.99788e-13 	1
1.485 	300 	8.72648e-18 	1
1.495 	300 	5.23589e-17 	1
1.505 	300 	1.41794e-12 	1
1.515 	300 	1.78138e-12 	1
1.525 	300 	8.72648e-18 	1
1.535 	300 	6.90733e-13 	1
1.545 	300 	1.7211e-28 	1
1.555 	300 	1.41772e-12 	1
1.565 	300 	1.56317e-12 	1
1.575 	300 	2.18118e-13 	1
1.585 	300 	8.36089e-13 	1
1.595 	300 	1.30879e-12 	1
1.605 	300 	8.39432e-27 	1
1.615 	300 	1.89045e-12 	1
1.625 	300 	3.63618e-14 	1
1.635 	300 	1.89074e-17 	1
1.645 	300 	5.23589e-17 	1
1.655 	300 	2.18112e-13 	1
1.665 	300 	4.36324e-17 	1
1.675 	300 	1.56316e-12 	1
1.685 	300 	1.59954e-12 	1
1.695 	300 	8.72543e-13 	1
1.705 	300 	4.72571e-13 	1
1.715 	300 	1.89044e-12 	1
1.725 	300 	5.81695e-13 	1
1.735 	300 	1.56315e-12 	1
1.745 	300 	1.19963e-12 	1
1.755 	300 	1.78126e-12 	1
1.765 	300 	9.45369e-17 	1
1.775 	300 	1.78144e-12 	1
1.785 	300 	4.79956e-17 	1
1.795 	300 	1.09057e-12 	1
1.805 	300 	1.4543e-13 	1
1.815 	300 	1.16331e-12 	1
1.825 	300 	1.01797e-12 	1
1.835 	300 	2.18118e-13 	1
1.845 	300 	1.01792e-12 	1
1.855 	300 	4.36282e-13 	1
1.865 	300 	4.72546e-13 	1
1.875 	300 	6.90702e-13 	1
1.885 	300 	1.09061e-13 	1
1.895 	300 	1.89074e-17 	1
1.905 	300 	1.09062e-13 	1
1.915 	300 	1.5995e-12 	1
1.925 	300 	1.0909e-13 	1
1.935 	300 	3.27279e-13 	1
1.945 	300 	1.16339e-12 	1
1.955 	300 	6.54365e-13 	1
1.965 	300 	2.18149e-13 	1
1.975 	300 	4.72451e-13 	1
1.985 	300 	1.74504e-12 	1
1.995 	300 	1.4543e-12 	1
2.005 	300 	1.81783e-12 	1
2.015 	300 	1.30887e-12 	1
2.025 	300 	1.41794e-12 	1
2.035 	300 	1.85418e-12 	1
2.045 	300 	1.49062e-12 	1
2.055 	300 	3.27246e-13 	1
2.065 	300 	4.36335e-13 	1
2.075 	300 	2.90883e-17 	1
2.085 	300 	7.63532e-13 	1
2.095 	300 	1.67239e-12 	1
2.105 	300 	1.16342e-12 	1
2.115 	300 	4.36271e-13 	1
2.125 	300 	2.5444e-12 	1
2.135 	300 	2.47168e-12 	1
2.145 	300 	3.63604e-17 	1
2.155 	300 	4.7259e-13 	1
2.165 	300 	4.36254e-13 	1
2.175 	300 	2.18209e-13 	1
2.185 	300 	5.81765e-17 	1
2.195 	300 	2.28982e-12 	1
2.205 	300 	2.58096e-12 	1
2.215 	300 	1.01799e-12 	1
2.225 	300 	1.6724e-12 	1
2.235 	300 	7.27162e-13 	1
2.245 	300 	4.72667e-13 	1
2.255 	300 	3.63545e-13 	1
2.265 	300 	2.90719e-13 	1
2.275 	300 	1.45428e-13 	1
2.285 	300 	4.7259e-13 	1
2.295 	300 	1.45433e-12 	1
2.305 	300 	3.99919e-13 	1
2.315 	300 	1.09078e-13 	1
2.325 	300 	1.99955e-12 	1
2.335 	300 	1.27217e-12 	1
2.345 	300 	3.05427e-17 	1
2.355 	300 	1.63605e-12 	1
2.365 	300 	1.70877e-12 	1
2.375 	300 	3.92691e-17 	1
2.385 	300 	1.09067e-12 	1
2.395 	300 	1.19972e-12 	1
2.405 	300 	1.78141e-12 	1
2.415 	300 	4.72647e-13 	1
2.425 	300 	1.74512e-12 	1
2.435 	300 	1.16353e-17 	1
2.445 	300 	2.87161e-12 	1
2.455 	300 	2.72618e-12 	1
2.465 	300 	8.72578e-13 	1
2.475 	300 	7.63506e-13 	1
2.485 	300 	4.07236e-17 	1
2.495 	300 	5.45396e-13 	1
2.505 	300 	1.89052e-12 	1
2.515 	300 	1.09073e-12 	1
2.525 	300 	1.1998e-12 	1
2.535 	300 	1.3089e-12 	1
2.545 	300 	1.41796e-12 	1
2.555 	300 	1.56333e-12 	1
2.565 	300 	2.9084e-13 	1
2.575 	300 	4.72613e-13 	1
2.585 	300 	1.89074e-17 	1
2.595 	300 	5.45369e-13 	1
2.605 	300 	7.63526e-13 	1
2.615 	300 	1.01809e-17 	1
2.625 	300 	2.90836e-13 	1
2.635 	300 	7.6348e-13 	1
2.645 	300 	4.36334e-13 	1
2.655 	300 	6.18103e-13 	1
2.665 	300 	1.45427e-12 	1
2.675 	300 	1.89051e-12 	1
2.685 	300 	1.45442e-18 	1
2.695 	300 	1.81781e-12 	1
2.705 	300 	3.63531e-13 	1
2.715 	300 	9.81696e-13 	1
2.725 	300 	3.05427e-17 	1
2.735 	300 	6.54464e-13 	1
2.745 	300 	1.63599e-12 	1
2.755 	300 	1.59966e-12 	1
2.765 	300 	5.81708e-13 	1
2.775 	300 	1.78145e-12 	1
2.785 	300 	2.03588e-12 	1
2.795 	300 	1.45435e-12 	1
2.805 	300 	3.30796e-12 	1
2.815 	300 	2.61719e-12 	1
2.825 	300 	3.999e-13 	1
2.835 	300 	7.99705e-13 	1
2.845 	300 	2.18122e-12 	1
2.855 	300 	1.05408e-12 	1
2.865 	300 	1.99918e-12 	1
2.875 	300 	6.54435e-13 	1
2.885 	300 	1.89052e-12 	1
2.895 	300 	1.56335e-12 	1
2.905 	300 	6.90762e-13 	1
2.915 	300 	5.08961e-13 	1
2.925 	300 	1.41796e-12 	1
2.935 	300 	1.86301e-25 	1
2.945 	300 	1.45429e-12 	1
2.955 	300 	5.96309e-17 	1
2.965 	300 	1.52692e-12 	1
2.975 	300 	1.30883e-12 	1
2.985 	300 	1.70876e-12 	1
2.995 	300 	2.18137e-13 	1
3.005 	300 	2.43556e-12 	1
3.015 	300 	1.0538e-12 	1
3.025 	300 	1.5633e-12 	1
3.035 	300 	6.908e-13 	1
3.045 	300 	2.9089e-13 	1
3.055 	300 	1.45421e-13 	1
3.065 	300 	1.89047e-12 	1
3.075 	300 	1.74505e-12 	1
3.085 	300 	3.84022e-51 	1
3.095 	300 	2.54444e-12 	1
3.105 	300 	2.1083e-12 	1
3.115 	300 	5.23589e-17 	1
3.125 	300 	1.563e-12 	1
3.135 	300 	1.78115e-12 	1
3.145 	300 	1.59969e-12 	1
3.155 	300 	1.74511e-12 	1
3.165 	300 	1.52697e-12 	1
3.175 	300 	1.59968e-12 	1
3.185 	300 	5.81715e-13 	1
3.195 	300 	1.41788e-12 	1
3.205 	300 	1.89053e-12 	1
3.215 	300 	1.81782e-12 	1
3.225 	300 	1.30897e-17 	1
3.235 	300 	1.12707e-12 	1
3.245 	300 	5.38133e-17 	1
3.255 	300 	3.05427e-17 	1
3.265 	300 	8.72583e-13 	1
3.275 	300 	2.23994e-26 	1
3.285 	300 	3.2723e-13 	1
3.295 	300 	1.78147e-12 	1
3.305 	300 	1.81782e-12 	1
3.315 	300 	1.89051e-12 	1
3.325 	300 	1.89074e-17 	1
3.335 	300 	1.45427e-12 	1
3.345 	300 	1.49065e-12 	1
3.355 	300 	1.09069e-12 	1
3.365 	300 	1.0177e-12 	1
3.375 	300 	1.27211e-12 	1
3.385 	300 	7.63483e-13 	1
3.395 	300 	1.018e-12 	1
3.405 	300 	1.1634e-12 	1
3.415 	300 	9.08874e-13 	1
3.425 	300 	3.27196e-13 	1
3.435 	300 	6.90815e-13 	1
3.445 	300 	1.34515e-12 	1
3.455 	300 	1.89074e-17 	1
3.465 	300 	1.85415e-12 	1
3.475 	300 	3.99903e-13 	1
3.485 	300 	4.36324e-17 	1
3.495 	300 	5.81742e-13 	1
3.505 	300 	5.45381e-13 	1
3.515 	300 	6.54397e-13 	1
3.525 	300 	3.05427e-17 	1
3.535 	300 	1.3452e-12 	1
3.545 	300 	5.81766e-18 	1
3.555 	300 	4.36286e-13 	1
3.565 	300 	1.81783e-12 	1
3.575 	300 	1.45427e-12 	1
3.585 	300 	1.89051e-12 	1
3.595 	300 	1.0909e-13 	1
3.605 	300 	1.59986e-17 	1
3.615 	300 	2.87179e-12 	1
3.625 	300 	1.41751e-12 	1
3.635 	300 	1.0954e-28 	1
3.645 	300 	2.18164e-13 	1
3.655 	300 	1.7812e-12 	1
3.665 	300 	2.03567e-12 	1
3.675 	300 	1.74511e-12 	1
3.685 	300 	1.45421e-12 	1
3.695 	300 	1.67233e-12 	1
3.705 	300 	1.45443e-13 	1
3.715 	300 	1.41786e-12 	1
3.725 	300 	1.30881e-12 	1
3.735 	300 	2.90864e-13 	1
3.745 	300 	7.63375e-13 	1
3.755 	300 	1.8534e-12 	1
3.765 	300 	1.16292e-12 	1
3.775 	300 	7.63556e-13 	1
3.785 	300 	6.54495e-13 	1
3.795 	300 	1.81831e-13 	1
3.805 	300 	7.63452e-13 	1
3.815 	300 	1.52697e-12 	1
3.825 	300 	1.81781e-12 	1
3.835 	300 	1.09093e-13 	1
3.845 	300 	1.89074e-17 	1
3.855 	300 	1.89074e-17 	1
3.865 	300 	3.99964e-13 	1
3.875 	300 	1.52694e-12 	1
3.885 	300 	1.45422e-12 	1
3.895 	300 	1.01798e-12 	1
3.905 	300 	8.72191e-13 	1
3.915 	300 	2.54421e-12 	1
3.925 	300 	1.2723e-12 	1
3.935 	300 	5.81715e-13 	1
3.945 	300 	1.78148e-12 	1
3.955 	300 	1.49063e-12 	1
3.965 	300 	1.85418e-12 	1
3.975 	300 	7.56295e-17 	1
3.985 	300 	1.74505e-12 	1
3.995 	300 	1.27246e-12 	1
4.005 	300 	2.76339e-17 	1
4.015 	300 	5.67221e-17 	1
4.025 	300 	1.56289e-12 	1
4.035 	300 	6.54247e-13 	1
4.045 	300 	1.41791e-12 	1
4.055 	300 	3.49059e-17 	1
4.065 	300 	9.08927e-13 	1
4.075 	300 	1.09066e-12 	1
4.085 	300 	1.19974e-12 	1
4.095 	300 	4.36324e-18 	1
4.105 	300 	9.44522e-28 	1
4.115 	300 	1.09084e-13 	1
4.125 	300 	6.39942e-17 	1
4.135 	300 	4.36325e-18 	1
4.145 	300 	3.27249e-13 	1
4.155 	300 	7.27131e-13 	1
4.165 	300 	8.72649e-18 	1
4.175 	300 	6.54423e-13 	1
4.185 	300 	1.89047e-12 	1
4.195 	300 	9.816e-13 	1
4.205 	300 	4.65413e-17 	1
4.215 	300 	2.18179e-13 	1
4.225 	300 	1.74513e-12 	1
4.235 	300 	1.41786e-12 	1
4.245 	300 	1.45456e-13 	1
4.255 	300 	2.18161e-13 	1
4.265 	300 	3.27198e-13 	1
4.275 	300 	1.74502e-12 	1
4.285 	300 	8.72314e-13 	1
4.295 	300 	1.52673e-12 	1
4.305 	300 	1.01792e-12 	1
4.315 	300 	1.59961e-12 	1
4.325 	300 	1.16353e-17 	1
4.335 	300 	1.7813e-12 	1
4.345 	300 	9.08803e-13 	1
4.355 	300 	5.38133e-17 	1
4.365 	300 	1.41794e-12 	1
4.375 	300 	4.72609e-13 	1
4.385 	300 	2.90883e-18 	1
4.395 	300 	1.09069e-12 	1
4.405 	300 	4.36308e-13 	1
4.415 	300 	5.45362e-13 	1
4.425 	300 	7.63485e-13 	1
4.435 	300 	3.05427e-17 	1
4.445 	300 	1.89052e-12 	1
4.455 	300 	1.4542e-13 	1
4.465 	300 	1.45418e-12 	1
4.475 	300 	8.72648e-18 	1
4.485 	300 	1.45442e-18 	1
4.495 	300 	3.30758e-12 	1
4.505 	300 	3.05322e-12 	1
4.515 	300 	1.1998e-12 	1
4.525 	300 	1.09067e-12 	1
4.535 	300 	1.7453e-17 	1
4.545 	300 	2.18162e-17 	1
4.555 	300 	7.63458e-13 	1
4.565 	300 	6.54407e-13 	1
4.575 	300 	3.49059e-17 	1
4.585 	300 	1.30879e-12 	1
4.595 	300 	3.63506e-13 	1
4.605 	300 	8.72648e-18 	1
4.615 	300 	1.5269e-12 	1
4.625 	300 	5.40082e-25 	1
4.635 	300 	1.09049e-13 	1
4.645 	300 	2.1818e-13 	1