-4.995 	500 	5.28689e-12 	1.5e+07
-4.985 	500 	4.88021e-12 	1.5e+07
-4.975 	500 	8.13368e-13 	1.5e+07
-4.965 	500 	1.22005e-12 	1.5e+07
-4.955 	500 	3.66015e-12 	1.5e+07
-4.945 	500 	3.25347e-12 	1.5e+07
-4.935 	500 	6.17068e-25 	1.5e+07
-4.925 	500 	6.17312e-25 	1.5e+07
-4.915 	500 	3.25347e-12 	1.5e+07
-4.905 	500 	3.66015e-12 	1.5e+07
-4.895 	500 	1.22003e-11 	1.5e+07
-4.885 	500 	8.94689e-12 	1.5e+07
-4.875 	500 	4.06684e-13 	1.5e+07
-4.865 	500 	1.33633e-24 	1.5e+07
-4.855 	500 	3.80138e-73 	1.5e+07
-4.845 	500 	1.1313e-24 	1.5e+07
-4.835 	500 	1.22005e-12 	1.5e+07
-4.825 	500 	1.62674e-12 	1.5e+07
-4.815 	500 	7.42025e-24 	1.5e+07
-4.805 	500 	7.32014e-12 	1.5e+07
-4.795 	500 	5.69342e-12 	1.5e+07
-4.785 	500 	3.25347e-12 	1.5e+07
-4.775 	500 	3.66015e-12 	1.5e+07
-4.765 	500 	5.28689e-12 	1.5e+07
-4.755 	500 	8.13368e-13 	1.5e+07
-4.745 	500 	1.23414e-24 	1.5e+07
-4.735 	500 	5.03639e-72 	1.5e+07
-4.725 	500 	4.88021e-12 	1.5e+07
-4.715 	500 	3.00736e-34 	1.5e+07
-4.705 	500 	4.06682e-12 	1.5e+07
-4.695 	500 	1.33736e-24 	1.5e+07
-4.685 	500 	2.15535e-11 	1.5e+07
-4.675 	500 	1.95202e-11 	1.5e+07
-4.665 	500 	2.4401e-12 	1.5e+07
-4.655 	500 	2.03342e-12 	1.5e+07
-4.645 	500 	1.3369e-24 	1.5e+07
-4.635 	500 	4.06684e-12 	1.5e+07
-4.625 	500 	5.28689e-12 	1.5e+07
-4.615 	500 	2.71122e-18 	1.5e+07
-4.605 	500 	3.52459e-17 	1.5e+07
-4.595 	500 	2.73396e-35 	1.5e+07
-4.585 	500 	5.28689e-12 	1.5e+07
-4.575 	500 	4.06684e-12 	1.5e+07
-4.565 	500 	4.11378e-25 	1.5e+07
-4.555 	500 	8.22338e-25 	1.5e+07
-4.545 	500 	1.09803e-11 	1.5e+07
-4.535 	500 	7.72681e-12 	1.5e+07
-4.525 	500 	2.16898e-17 	1.5e+07
-4.515 	500 	5.28689e-12 	1.5e+07
-4.505 	500 	1.22005e-12 	1.5e+07
-4.495 	500 	1.13331e-24 	1.5e+07
-4.485 	500 	6.49049e-112 	1.5e+07
-4.475 	500 	2.32185e-80 	1.5e+07
-4.465 	500 	1.23414e-24 	1.5e+07
-4.455 	500 	8.13368e-13 	1.5e+07
-4.445 	500 	1.22005e-12 	1.5e+07
-4.435 	500 	1.09359e-34 	1.5e+07
-4.425 	500 	3.25347e-12 	1.5e+07
-4.415 	500 	2.84679e-12 	1.5e+07
-4.405 	500 	7.19627e-25 	1.5e+07
-4.395 	500 	5.14227e-25 	1.5e+07
-4.385 	500 	3.66015e-12 	1.5e+07
-4.375 	500 	4.06684e-12 	1.5e+07
-4.365 	500 	8.13368e-13 	1.5e+07
-4.355 	500 	0 	1.5e+07
-4.345 	500 	0 	1.5e+07
-4.335 	500 	4.06684e-13 	1.5e+07
-4.325 	500 	8.13368e-13 	1.5e+07
-4.315 	500 	1.34203e-11 	1.5e+07
-4.305 	500 	1.26069e-11 	1.5e+07
-4.295 	500 	2.03342e-12 	1.5e+07
-4.285 	500 	2.84679e-12 	1.5e+07
-4.275 	500 	1.09802e-11 	1.5e+07
-4.265 	500 	6.50677e-12 	1.5e+07
-4.255 	500 	8.54025e-12 	1.5e+07
-4.245 	500 	7.7268e-12 	1.5e+07
-4.235 	500 	5.28689e-12 	1.5e+07
-4.225 	500 	4.06713e-13 	1.5e+07
-4.215 	500 	3.1315e-27 	1.5e+07
-4.205 	500 	4.06684e-13 	1.5e+07
-4.195 	500 	5.28689e-12 	1.5e+07
-4.185 	500 	0 	1.5e+07
-4.175 	500 	3.66015e-12 	1.5e+07
-4.165 	500 	2.03342e-12 	1.5e+07
-4.155 	500 	0 	1.5e+07
-4.145 	500 	2.84679e-12 	1.5e+07
-4.135 	500 	1.17936e-11 	1.5e+07
-4.125 	500 	1.26069e-11 	1.5e+07
-4.115 	500 	1.02882e-24 	1.5e+07
-4.105 	500 	2.05625e-25 	1.5e+07
-4.095 	500 	4.88021e-12 	1.5e+07
-4.085 	500 	5.28689e-12 	1.5e+07
-4.075 	500 	4.06684e-13 	1.5e+07
-4.065 	500 	0 	1.5e+07
-4.055 	500 	4.11428e-24 	1.5e+07
-4.045 	500 	6.91349e-12 	1.5e+07
-4.035 	500 	9.35359e-12 	1.5e+07
-4.025 	500 	1.33772e-24 	1.5e+07
-4.015 	500 	2.84679e-12 	1.5e+07
-4.005 	500 	3.25347e-12 	1.5e+07
-3.995 	500 	1.09359e-34 	1.5e+07
-3.985 	500 	4.06675e-12 	1.5e+07
-3.975 	500 	4.47343e-12 	1.5e+07
-3.965 	500 	4.06684e-13 	1.5e+07
-3.955 	500 	1.17393e-27 	1.5e+07
-3.945 	500 	5.28689e-12 	1.5e+07
-3.935 	500 	4.47352e-12 	1.5e+07
-3.925 	500 	9.35341e-12 	1.5e+07
-3.915 	500 	6.91343e-12 	1.5e+07
-3.905 	500 	2.03342e-12 	1.5e+07
-3.895 	500 	4.88022e-12 	1.5e+07
-3.885 	500 	2.84679e-12 	1.5e+07
-3.875 	500 	2.03342e-12 	1.5e+07
-3.865 	500 	1.62674e-12 	1.5e+07
-3.855 	500 	3.08425e-25 	1.5e+07
-3.845 	500 	4.47352e-12 	1.5e+07
-3.835 	500 	4.88021e-12 	1.5e+07
-3.825 	500 	1.20591e-23 	1.5e+07
-3.815 	500 	1.22012e-12 	1.5e+07
-3.805 	500 	6.1002e-12 	1.5e+07
-3.795 	500 	1.22005e-12 	1.5e+07
-3.785 	500 	1.62674e-12 	1.5e+07
-3.775 	500 	3.16445e-112 	1.5e+07
-3.765 	500 	7.19686e-25 	1.5e+07
-3.755 	500 	2.84679e-12 	1.5e+07
-3.745 	500 	3.25347e-12 	1.5e+07
-3.735 	500 	3.66017e-12 	1.5e+07
-3.725 	500 	5.28686e-12 	1.5e+07
-3.715 	500 	8.13368e-13 	1.5e+07
-3.705 	500 	2.1622e-24 	1.5e+07
-3.695 	500 	1.58603e-11 	1.5e+07
-3.685 	500 	1.46403e-11 	1.5e+07
-3.675 	500 	1.85522e-24 	1.5e+07
-3.665 	500 	0 	1.5e+07
-3.655 	500 	1.62674e-12 	1.5e+07
-3.645 	500 	8.54025e-12 	1.5e+07
-3.635 	500 	1.09804e-11 	1.5e+07
-3.625 	500 	5.28685e-12 	1.5e+07
-3.615 	500 	1.33782e-24 	1.5e+07
-3.605 	500 	3.66015e-12 	1.5e+07
-3.595 	500 	4.06684e-12 	1.5e+07
-3.585 	500 	4.19307e-72 	1.5e+07
-3.575 	500 	1.02859e-25 	1.5e+07
-3.565 	500 	5.28689e-12 	1.5e+07
-3.555 	500 	4.88017e-12 	1.5e+07
-3.545 	500 	1.62692e-12 	1.5e+07
-3.535 	500 	6.5069e-12 	1.5e+07
-3.525 	500 	6.30359e-12 	1.5e+07
-3.515 	500 	2.03342e-12 	1.5e+07
-3.505 	500 	2.4401e-12 	1.5e+07
-3.495 	500 	2.4401e-12 	1.5e+07
-3.485 	500 	2.03342e-12 	1.5e+07
-3.475 	500 	1.62672e-12 	1.5e+07
-3.465 	500 	2.44004e-12 	1.5e+07
-3.455 	500 	8.40101e-12 	1.5e+07
-3.445 	500 	7.96245e-12 	1.5e+07
-3.435 	500 	2.64334e-12 	1.5e+07
-3.425 	500 	5.28688e-12 	1.5e+07
-3.415 	500 	4.47352e-12 	1.5e+07
-3.405 	500 	3.08818e-25 	1.5e+07
-3.395 	500 	3.66015e-12 	1.5e+07
-3.385 	500 	3.25347e-12 	1.5e+07
-3.375 	500 	7.72683e-12 	1.5e+07
-3.365 	500 	1.09804e-11 	1.5e+07
-3.355 	500 	3.25347e-12 	1.5e+07
-3.345 	500 	1.62674e-12 	1.5e+07
-3.335 	500 	1.22005e-12 	1.5e+07
-3.325 	500 	1.13218e-24 	1.5e+07
-3.315 	500 	1.02806e-25 	1.5e+07
-3.305 	500 	5.28689e-12 	1.5e+07
-3.295 	500 	3.05021e-12 	1.5e+07
-3.285 	500 	5.28687e-12 	1.5e+07
-3.275 	500 	5.28682e-12 	1.5e+07
-3.265 	500 	4.148e-25 	1.5e+07
-3.255 	500 	5.28689e-12 	1.5e+07
-3.245 	500 	2.84679e-12 	1.5e+07
-3.235 	500 	7.20898e-25 	1.5e+07
-3.225 	500 	2.0334e-12 	1.5e+07
-3.215 	500 	1.62672e-12 	1.5e+07
-3.205 	500 	4.06681e-12 	1.5e+07
-3.195 	500 	4.47349e-12 	1.5e+07
-3.185 	500 	4.06684e-13 	1.5e+07
-3.175 	500 	7.93012e-12 	1.5e+07
-3.165 	500 	5.08345e-12 	1.5e+07
-3.155 	500 	4.47343e-12 	1.5e+07
-3.145 	500 	8.13362e-12 	1.5e+07
-3.135 	500 	3.66015e-12 	1.5e+07
-3.125 	500 	2.03342e-12 	1.5e+07
-3.115 	500 	8.13369e-12 	1.5e+07
-3.105 	500 	1.22018e-12 	1.5e+07
-3.095 	500 	3.05005e-12 	1.5e+07
-3.085 	500 	2.44004e-12 	1.5e+07
-3.075 	500 	4.47354e-12 	1.5e+07
-3.065 	500 	4.47352e-12 	1.5e+07
-3.055 	500 	4.14887e-73 	1.5e+07
-3.045 	500 	1.33877e-24 	1.5e+07
-3.035 	500 	4.06684e-13 	1.5e+07
-3.025 	500 	1.05737e-11 	1.5e+07
-3.015 	500 	5.28684e-12 	1.5e+07
-3.005 	500 	7.32025e-12 	1.5e+07
-2.995 	500 	1.45812e-39 	1.5e+07
-2.985 	500 	6.50684e-12 	1.5e+07
-2.975 	500 	1.42334e-12 	1.5e+07
-2.965 	500 	5.28682e-12 	1.5e+07
-2.955 	500 	7.32012e-12 	1.5e+07
-2.945 	500 	4.06675e-12 	1.5e+07
-2.935 	500 	3.55418e-34 	1.5e+07
-2.925 	500 	1.02858e-25 	1.5e+07
-2.915 	500 	5.28685e-12 	1.5e+07
-2.905 	500 	3.25347e-17 	1.5e+07
-2.895 	500 	3.45687e-12 	1.5e+07
-2.885 	500 	1.05734e-11 	1.5e+07
-2.875 	500 	1.09801e-11 	1.5e+07
-2.865 	500 	7.72672e-12 	1.5e+07
-2.855 	500 	6.50684e-12 	1.5e+07
-2.845 	500 	7.20268e-25 	1.5e+07
-2.835 	500 	2.03338e-12 	1.5e+07
-2.825 	500 	3.25351e-12 	1.5e+07
-2.815 	500 	1.0777e-11 	1.5e+07
-2.805 	500 	9.76009e-12 	1.5e+07
-2.795 	500 	1.23554e-24 	1.5e+07
-2.785 	500 	1.14033e-37 	1.5e+07
-2.775 	500 	4.88021e-12 	1.5e+07
-2.765 	500 	4.47352e-12 	1.5e+07
-2.755 	500 	5.28689e-12 	1.5e+07
-2.745 	500 	9.25131e-25 	1.5e+07
-2.735 	500 	2.03342e-12 	1.5e+07
-2.725 	500 	5.28689e-12 	1.5e+07
-2.715 	500 	5.08354e-12 	1.5e+07
-2.705 	500 	5.147e-25 	1.5e+07
-2.695 	500 	3.66015e-12 	1.5e+07
-2.685 	500 	4.06684e-12 	1.5e+07
-2.675 	500 	8.13368e-13 	1.5e+07
-2.665 	500 	3.05012e-12 	1.5e+07
-2.655 	500 	5.28689e-12 	1.5e+07
-2.645 	500 	1.02885e-25 	1.5e+07
-2.635 	500 	0 	1.5e+07
-2.625 	500 	2.46058e-34 	1.5e+07
-2.615 	500 	1.62687e-12 	1.5e+07
-2.605 	500 	9.3535e-12 	1.5e+07
-2.595 	500 	4.88022e-12 	1.5e+07
-2.585 	500 	1.05736e-11 	1.5e+07
-2.575 	500 	4.67669e-12 	1.5e+07
-2.565 	500 	3.66015e-12 	1.5e+07
-2.555 	500 	1.22005e-12 	1.5e+07
-2.545 	500 	8.13368e-13 	1.5e+07
-2.535 	500 	4.06684e-13 	1.5e+07
-2.525 	500 	7.93012e-12 	1.5e+07
-2.515 	500 	5.08345e-12 	1.5e+07
-2.505 	500 	8.13368e-13 	1.5e+07
-2.495 	500 	1.22005e-12 	1.5e+07
-2.485 	500 	4.92112e-34 	1.5e+07
-2.475 	500 	0 	1.5e+07
-2.465 	500 	1.27586e-39 	1.5e+07
-2.455 	500 	2.4401e-12 	1.5e+07
-2.445 	500 	4.06685e-12 	1.5e+07
-2.435 	500 	6.30341e-12 	1.5e+07
-2.425 	500 	9.35344e-12 	1.5e+07
-2.415 	500 	8.13368e-13 	1.5e+07
-2.405 	500 	4.06684e-13 	1.5e+07
-2.395 	500 	1.33895e-24 	1.5e+07
-2.385 	500 	2.73398e-35 	1.5e+07
-2.375 	500 	5.46797e-35 	1.5e+07
-2.365 	500 	0 	1.5e+07
-2.355 	500 	3.5184e-72 	1.5e+07
-2.345 	500 	3.25347e-12 	1.5e+07
-2.335 	500 	2.84679e-12 	1.5e+07
-2.325 	500 	2.4401e-12 	1.5e+07
-2.315 	500 	2.03342e-12 	1.5e+07
-2.305 	500 	9.26965e-25 	1.5e+07
-2.295 	500 	3.08545e-25 	1.5e+07
-2.285 	500 	4.47352e-12 	1.5e+07
-2.275 	500 	4.88021e-12 	1.5e+07
-2.265 	500 	5.28689e-12 	1.5e+07
-2.255 	500 	5.49022e-12 	1.5e+07
-2.245 	500 	1.22002e-12 	1.5e+07
-2.235 	500 	1.22005e-12 	1.5e+07
-2.225 	500 	1.62674e-12 	1.5e+07
-2.215 	500 	6.28815e-34 	1.5e+07
-2.205 	500 	0 	1.5e+07
-2.195 	500 	1.91379e-34 	1.5e+07
-2.185 	500 	3.25347e-12 	1.5e+07
-2.175 	500 	7.32032e-12 	1.5e+07
-2.165 	500 	4.06684e-12 	1.5e+07
-2.155 	500 	2.05874e-25 	1.5e+07
-2.145 	500 	4.88021e-12 	1.5e+07
-2.135 	500 	-4.4021e-28 	1.5e+07
-2.125 	500 	5.49022e-12 	1.5e+07
-2.115 	500 	1.09801e-11 	1.5e+07
-2.105 	500 	6.71015e-12 	1.5e+07
-2.095 	500 	3.66015e-12 	1.5e+07
-2.085 	500 	9.15037e-12 	1.5e+07
-2.075 	500 	2.84679e-12 	1.5e+07
-2.065 	500 	7.20198e-25 	1.5e+07
-2.055 	500 	2.03342e-12 	1.5e+07
-2.045 	500 	1.62674e-12 	1.5e+07
-2.035 	500 	1.02809e-24 	1.5e+07
-2.025 	500 	8.13368e-13 	1.5e+07
-2.015 	500 	4.06684e-13 	1.5e+07
-2.005 	500 	5.28685e-12 	1.5e+07
-1.995 	500 	2.71122e-18 	1.5e+07
-1.985 	500 	2.684e-11 	1.5e+07
-1.975 	500 	2.15532e-11 	1.5e+07
-1.965 	500 	7.32025e-12 	1.5e+07
-1.955 	500 	1.17936e-11 	1.5e+07
-1.945 	500 	3.52459e-17 	1.5e+07
-1.935 	500 	3.52459e-17 	1.5e+07
-1.925 	500 	2.19605e-11 	1.5e+07
-1.915 	500 	7.32032e-12 	1.5e+07
-1.905 	500 	1.01666e-11 	1.5e+07
-1.895 	500 	5.28682e-12 	1.5e+07
-1.885 	500 	5.08348e-12 	1.5e+07
-1.875 	500 	2.64334e-12 	1.5e+07
-1.865 	500 	3.08672e-23 	1.5e+07
-1.855 	500 	1.74869e-11 	1.5e+07
-1.845 	500 	5.28668e-12 	1.5e+07
-1.835 	500 	1.34201e-11 	1.5e+07
-1.825 	500 	1.34201e-11 	1.5e+07
-1.815 	500 	1.464e-11 	1.5e+07
-1.805 	500 	2.44007e-12 	1.5e+07
-1.795 	500 	1.42335e-11 	1.5e+07
-1.785 	500 	1.54535e-11 	1.5e+07
-1.775 	500 	8.13354e-12 	1.5e+07
-1.765 	500 	5.42245e-18 	1.5e+07
-1.755 	500 	2.48066e-11 	1.5e+07
-1.745 	500 	3.172e-11 	1.5e+07
-1.735 	500 	9.76025e-12 	1.5e+07
-1.725 	500 	1.13873e-11 	1.5e+07
-1.715 	500 	1.95203e-11 	1.5e+07
-1.705 	500 	8.13342e-12 	1.5e+07
-1.695 	500 	7.31999e-12 	1.5e+07
-1.685 	500 	1.91134e-11 	1.5e+07
-1.675 	500 	5.28668e-12 	1.5e+07
-1.665 	500 	1.32167e-11 	1.5e+07
-1.655 	500 	5.0836e-12 	1.5e+07
-1.645 	500 	3.66012e-12 	1.5e+07
-1.635 	500 	1.62671e-12 	1.5e+07
-1.625 	500 	4.88017e-12 	1.5e+07
-1.615 	500 	3.52459e-17 	1.5e+07
-1.605 	500 	3.52459e-17 	1.5e+07
-1.595 	500 	1.62678e-12 	1.5e+07
-1.585 	500 	1.22004e-12 	1.5e+07
-1.575 	500 	1.62671e-12 	1.5e+07
-1.565 	500 	1.05735e-11 	1.5e+07
-1.555 	500 	1.13871e-16 	1.5e+07
-1.545 	500 	4.88012e-12 	1.5e+07
-1.535 	500 	3.52459e-17 	1.5e+07
-1.525 	500 	4.92112e-34 	1.5e+07
-1.515 	500 	0 	1.5e+07
-1.505 	500 	1.09803e-11 	1.5e+07
-1.495 	500 	8.54027e-12 	1.5e+07
-1.485 	500 	6.7705e-25 	1.5e+07
-1.475 	500 	4.88014e-12 	1.5e+07
-1.465 	500 	1.11835e-11 	1.5e+07
-1.455 	500 	8.74359e-12 	1.5e+07
-1.445 	500 	3.25345e-12 	1.5e+07
-1.435 	500 	4.06683e-12 	1.5e+07
-1.425 	500 	4.88012e-12 	1.5e+07
-1.415 	500 	1.22e-12 	1.5e+07
-1.405 	500 	2.64342e-12 	1.5e+07
-1.395 	500 	8.74353e-12 	1.5e+07
-1.385 	500 	2.27735e-11 	1.5e+07
-1.375 	500 	1.34197e-11 	1.5e+07
-1.365 	500 	1.17937e-11 	1.5e+07
-1.355 	500 	1.40984e-16 	1.5e+07
-1.345 	500 	4.88002e-12 	1.5e+07
-1.335 	500 	2.19598e-11 	1.5e+07
-1.325 	500 	2.562e-11 	1.5e+07
-1.315 	500 	2.15536e-11 	1.5e+07
-1.305 	500 	2.52136e-11 	1.5e+07
-1.295 	500 	6.91363e-12 	1.5e+07
-1.285 	500 	1.42334e-11 	1.5e+07
-1.275 	500 	2.2367e-11 	1.5e+07
-1.265 	500 	6.9135e-12 	1.5e+07
-1.255 	500 	6.10004e-12 	1.5e+07
-1.245 	500 	3.25346e-12 	1.5e+07
-1.235 	500 	4.88014e-12 	1.5e+07
-1.225 	500 	3.00818e-30 	1.5e+07
-1.215 	500 	2.71122e-18 	1.5e+07
-1.205 	500 	3.86356e-12 	1.5e+07
-1.195 	500 	7.93017e-12 	1.5e+07
-1.185 	500 	1.54536e-11 	1.5e+07
-1.175 	500 	6.50683e-12 	1.5e+07
-1.165 	500 	3.52459e-17 	1.5e+07
-1.155 	500 	1.91376e-34 	1.5e+07
-1.145 	500 	4.06685e-12 	1.5e+07
-1.135 	500 	1.66734e-11 	1.5e+07
-1.125 	500 	1.1456e-11 	1.5e+07
-1.115 	500 	6.1002e-12 	1.5e+07
-1.105 	500 	5.69344e-12 	1.5e+07
-1.095 	500 	1.05737e-11 	1.5e+07
-1.085 	500 	9.76025e-12 	1.5e+07
-1.075 	500 	3.52459e-17 	1.5e+07
-1.065 	500 	2.44021e-12 	1.5e+07
-1.055 	500 	3.25345e-12 	1.5e+07
-1.045 	500 	3.25343e-12 	1.5e+07
-1.035 	500 	9.75994e-12 	1.5e+07
-1.025 	500 	2.15535e-11 	1.5e+07
-1.015 	500 	2.03339e-12 	1.5e+07
-1.005 	500 	1.34203e-11 	1.5e+07
-0.995 	500 	8.94687e-12 	1.5e+07
-0.985 	500 	9.76033e-12 	1.5e+07
-0.975 	500 	5.69353e-12 	1.5e+07
-0.965 	500 	5.28682e-12 	1.5e+07
-0.955 	500 	4.06678e-13 	1.5e+07
-0.945 	500 	4.47343e-12 	1.5e+07
-0.935 	500 	1.22005e-12 	1.5e+07
-0.925 	500 	5.28678e-12 	1.5e+07
-0.915 	500 	4.06683e-12 	1.5e+07
-0.905 	500 	4.88012e-12 	1.5e+07
-0.895 	500 	2.44005e-12 	1.5e+07
-0.885 	500 	3.2534e-12 	1.5e+07
-0.875 	500 	1.08449e-17 	1.5e+07
-0.865 	500 	1.22006e-12 	1.5e+07
-0.855 	500 	4.47349e-12 	1.5e+07
-0.845 	500 	2.71122e-18 	1.5e+07
-0.835 	500 	3.52459e-17 	1.5e+07
-0.825 	500 	4.06713e-13 	1.5e+07
-0.815 	500 	8.13357e-13 	1.5e+07
-0.805 	500 	4.06673e-12 	1.5e+07
-0.795 	500 	3.66009e-12 	1.5e+07
-0.785 	500 	2.16898e-17 	1.5e+07
-0.775 	500 	1.62673e-17 	1.5e+07
-0.765 	500 	1.01669e-11 	1.5e+07
-0.755 	500 	1.54536e-11 	1.5e+07
-0.745 	500 	1.17934e-11 	1.5e+07
-0.735 	500 	1.05737e-11 	1.5e+07
-0.725 	500 	6.10021e-12 	1.5e+07
-0.715 	500 	2.55328e-12 	1.5e+07
-0.705 	500 	3.05893e-10 	1.5e+07
-0.695 	500 	2.89402e-09 	1.5e+07
-0.685 	500 	1.72809e-08 	1.5e+07
-0.675 	500 	9.04861e-08 	1.5e+07
-0.665 	500 	4.44984e-07 	1.5e+07
-0.655 	500 	2.08034e-06 	1.5e+07
-0.645 	500 	9.25102e-06 	1.5e+07
-0.635 	500 	3.90834e-05 	1.5e+07
-0.625 	500 	0.000156624 	1.5e+07
-0.615 	500 	0.000594326 	1.5e+07
-0.605 	500 	0.00213126 	1.49999e+07
-0.595 	499.998 	0.00720627 	1.49997e+07
-0.585 	499.994 	0.022908 	1.49988e+07
-0.575 	499.982 	0.0681615 	1.49964e+07
-0.565 	499.949 	0.190626 	1.49898e+07
-0.555 	499.869 	0.481261 	1.49744e+07
-0.545 	499.701 	1.0975 	1.49416e+07
-0.535 	499.387 	2.25336 	1.48802e+07
-0.525 	498.867 	4.15957 	1.47793e+07
-0.515 	498.113 	6.93112 	1.46339e+07
-0.505 	497.135 	10.5308 	1.44472e+07
-0.495 	495.978 	14.7999 	1.42289e+07
-0.485 	494.695 	19.5441 	1.39901e+07
-0.475 	493.331 	24.6019 	1.37397e+07
-0.465 	491.915 	29.8645 	1.34839e+07
-0.455 	490.464 	35.2654 	1.3226e+07
-0.445 	488.99 	40.7643 	1.29681e+07
-0.435 	487.499 	46.3369 	1.27117e+07
-0.425 	485.995 	51.9647 	1.24576e+07
-0.415 	484.483 	57.6357 	1.22062e+07
-0.405 	482.964 	63.3418 	1.19581e+07
-0.395 	481.44 	69.0764 	1.17135e+07
-0.385 	479.913 	74.8347 	1.14725e+07
-0.375 	478.383 	80.6129 	1.12353e+07
-0.365 	476.85 	86.4079 	1.1002e+07
-0.355 	475.317 	92.2175 	1.07726e+07
-0.345 	473.784 	98.0394 	1.05471e+07
-0.335 	472.249 	103.872 	1.03256e+07
-0.325 	470.716 	109.715 	1.0108e+07
-0.315 	469.183 	115.565 	9.89437e+06
-0.305 	467.65 	121.424 	9.68472e+06
-0.295 	466.118 	127.288 	9.47895e+06
-0.285 	464.586 	133.159 	9.277e+06
-0.275 	463.054 	139.034 	9.07883e+06
-0.265 	461.52 	144.915 	8.8844e+06
-0.255 	459.988 	150.801 	8.69374e+06
-0.245 	458.475 	156.691 	8.50685e+06
-0.235 	456.999 	162.582 	8.32361e+06
-0.225 	455.483 	168.473 	8.14363e+06
-0.215 	453.859 	174.375 	7.96697e+06
-0.205 	452.384 	180.284 	7.79423e+06
-0.195 	450.97 	186.178 	7.62478e+06
-0.185 	449.274 	192.089 	7.45832e+06
-0.175 	447.931 	198 	7.29569e+06
-0.165 	446.312 	203.906 	7.13589e+06
-0.155 	444.878 	209.825 	6.97953e+06
-0.145 	443.315 	215.735 	6.8261e+06
-0.135 	441.883 	221.656 	6.67587e+06
-0.125 	440.287 	227.572 	6.52853e+06
-0.115 	438.924 	233.493 	6.38426e+06
-0.105 	437.264 	239.415 	6.2428e+06
-0.095 	435.941 	245.337 	6.10425e+06
-0.085 	434.334 	251.263 	5.9685e+06
-0.075 	432.851 	257.188 	5.83547e+06
-0.065 	431.506 	263.116 	5.70517e+06
-0.055 	429.801 	269.044 	5.57754e+06
-0.045 	428.475 	274.976 	5.45252e+06
-0.035 	427.046 	280.906 	5.33009e+06
-0.025 	425.366 	286.838 	5.21021e+06
-0.015 	424.051 	292.775 	5.09271e+06
-0.005 	422.655 	298.707 	4.97765e+06
0.005 	420.975 	304.642 	4.86505e+06
0.015 	419.578 	310.585 	4.75468e+06
0.025 	418.298 	316.523 	4.64658e+06
0.035 	416.705 	322.456 	4.54083e+06
0.045 	415.09 	328.4 	4.43727e+06
0.055 	413.832 	334.35 	4.33576e+06
0.065 	412.525 	340.287 	4.23637e+06
0.075 	410.844 	346.223 	4.13923e+06
0.085 	409.281 	352.177 	4.04411e+06
0.095 	408.044 	358.133 	3.95085e+06
0.105 	406.767 	364.075 	3.85959e+06
0.115 	405.177 	370.012 	3.77038e+06
0.125 	403.531 	375.965 	3.68308e+06
0.135 	402.169 	381.93 	3.59749e+06
0.145 	400.973 	387.887 	3.51368e+06
0.155 	399.643 	393.831 	3.4317e+06
0.165 	398.038 	399.771 	3.35157e+06
0.175 	396.347 	405.729 	3.27322e+06
0.185 	395.003 	411.711 	3.19638e+06
0.195 	393.916 	417.678 	3.12103e+06
0.205 	392.613 	423.621 	3.04747e+06
0.215 	391.066 	429.57 	2.97564e+06
0.225 	389.462 	435.529 	2.9053e+06
0.235 	387.905 	441.501 	2.83648e+06
0.245 	386.57 	447.487 	2.7691e+06
0.255 	385.464 	453.47 	2.70306e+06
0.265 	384.307 	459.428 	2.63847e+06
0.275 	382.857 	465.373 	2.57546e+06
0.285 	381.207 	471.331 	2.51389e+06
0.295 	379.582 	477.309 	2.45359e+06
0.305 	378.105 	483.301 	2.39457e+06
0.315 	376.877 	489.308 	2.3368e+06
0.325 	375.898 	495.307 	2.28016e+06
0.335 	374.8 	501.263 	2.22477e+06
0.345 	373.289 	507.206 	2.17095e+06
0.355 	371.671 	513.187 	2.11838e+06
0.365 	370.247 	519.191 	2.06671e+06
0.375 	368.823 	525.167 	2.01609e+06
0.385 	367.182 	531.137 	1.96684e+06
0.395 	365.658 	537.162 	1.9188e+06
0.405 	364.686 	543.232 	1.87154e+06
0.415 	364.045 	549.259 	1.82503e+06
0.425 	363.078 	555.197 	1.77973e+06
0.435 	361.452 	561.11 	1.73589e+06
0.445 	359.547 	567.089 	1.69325e+06
0.455 	357.982 	573.146 	1.65127e+06
0.465 	356.804 	579.197 	1.60985e+06
0.475 	355.557 	585.183 	1.56941e+06
0.485 	353.967 	591.146 	1.5302e+06
0.495 	352.283 	597.162 	1.49206e+06
0.505 	350.996 	603.257 	1.45466e+06
0.515 	350.283 	609.377 	1.4178e+06
0.525 	349.802 	615.432 	1.3816e+06
0.535 	349.012 	621.392 	1.3464e+06
0.545 	347.636 	627.311 	1.31237e+06
0.555 	345.845 	633.268 	1.27932e+06
0.565 	344.044 	639.301 	1.24697e+06
0.575 	342.535 	645.389 	1.21516e+06
0.585 	341.317 	651.477 	1.18388e+06
0.595 	340.127 	657.514 	1.15323e+06
0.605 	338.671 	663.5 	1.12344e+06
0.615 	336.911 	669.489 	1.09455e+06
0.625 	335.109 	675.539 	1.06643e+06
0.635 	333.629 	681.671 	1.03887e+06
0.645 	332.694 	687.87 	1.01185e+06
0.655 	332.32 	694.079 	985260
0.665 	332.295 	700.267 	959365
0.675 	332.255 	706.286 	933504
0.685 	331.688 	712.149 	909106
0.695 	330.124 	718.067 	885613
0.705 	328.196 	724.052 	862671
0.715 	326.292 	730.128 	840204
0.725 	324.701 	736.28 	818086
0.735 	323.468 	742.45 	796284
0.745 	322.363 	748.569 	774852
0.755 	321.045 	754.602 	753963
0.765 	319.288 	760.575 	733734
0.775 	317.102 	766.556 	714156
0.785 	314.758 	772.615 	695151
0.795 	312.692 	778.797 	676542
0.805 	311.245 	785.101 	658277
0.815 	310.522 	791.462 	640158
0.825 	310.448 	797.874 	622659
0.835 	310.737 	804.208 	605047
0.845 	311.005 	810.361 	588086
0.855 	310.829 	816.157 	571090
0.865 	309.328 	821.873 	555925
0.875 	306.604 	827.838 	541687
0.885 	304.828 	834.153 	527468
0.895 	305.043 	841.278 	514132
0.905 	306.929 	848.195 	497881
0.915 	308.751 	854.374 	483071
0.925 	309.273 	860.051 	468990
0.935 	308.438 	865.325 	456343
0.945 	305.709 	870.974 	444952
0.955 	302.959 	876.955 	433207
0.965 	300.582 	883.064 	421301
0.975 	298.152 	889.134 	409485
0.985 	295.334 	895.227 	398469
0.995 	292.733 	901.509 	387626
1.005 	292.388 	908.577 	378699
1.015 	293.999 	916.046 	366365
1.025 	296.532 	922.612 	354203
1.035 	297.358 	928.071 	341718
1.045 	295.06 	932.082 	331305
1.055 	284.861 	936.84 	324365
1.065 	273.76 	942.787 	316905
1.075 	268.645 	949.977 	309180
1.085 	269.881 	959.499 	302756
1.095 	275.271 	968.932 	289443
1.105 	281.026 	977.219 	279108
1.115 	284.876 	983.805 	266798
1.125 	287.453 	988.85 	258001
1.135 	286.861 	992.057 	248248
1.145 	278.898 	995.388 	243481
1.155 	264.72 	1000.41 	238485
1.165 	255.583 	1006.81 	232484
1.175 	253.148 	1014.91 	227214
1.185 	255.694 	1024.39 	218794
1.195 	258.589 	1033.3 	212510
1.205 	264.822 	1042.73 	204229
1.215 	275.125 	1051.55 	196695
1.225 	285.168 	1059.98 	188986
1.235 	291.687 	1065.96 	180076
1.245 	293.947 	1069.68 	173525
1.255 	291.97 	1071.17 	167617
1.265 	275.672 	1073.99 	165762
1.275 	257.612 	1079.06 	162729
1.285 	248.45 	1085.62 	158620
1.295 	245.877 	1093.63 	154965
1.305 	248.091 	1102.93 	148888
1.315 	249.832 	1110.45 	141446
1.325 	249.044 	1116.72 	136935
1.335 	249.412 	1124.52 	134313
1.345 	253.267 	1133.15 	129029
1.355 	255.223 	1140.81 	124448
1.365 	262.439 	1149.16 	121332
1.375 	269.717 	1158.51 	117225
1.385 	276.32 	1165.89 	112484
1.395 	290.402 	1174.06 	109672
1.405 	303.359 	1182.33 	105765
1.415 	312.157 	1188.83 	101448
1.425 	317.186 	1193.36 	97776.1
1.435 	317.246 	1195.09 	93585.5
1.445 	307.356 	1195.47 	91549.5
1.455 	274.816 	1197.95 	90560.1
1.465 	243.221 	1202.47 	89083.5
1.475 	224.554 	1208.89 	87381
1.485 	220.79 	1217.84 	86017.1
1.495 	234.236 	1230.3 	84103.5
1.505 	254.764 	1242.28 	77142.9
1.515 	259.752 	1250.54 	74520.9
1.525 	264.39 	1259.12 	72146.4
1.535 	269.678 	1266.97 	68700.4
1.545 	274.601 	1273.81 	66096.9
1.555 	278.941 	1281.15 	64823
1.565 	282.723 	1288.8 	62824.6
1.575 	287.481 	1295.82 	60672.5
1.585 	295.098 	1303.27 	59263.6
1.595 	301.751 	1310.62 	57005.7
1.605 	304.183 	1314.15 	52713.9
1.615 	312.235 	1314.53 	49995.7
1.625 	333.058 	1318.44 	49989.4
1.635 	351.695 	1325.41 	49999.3
1.645 	366.64 	1333.65 	50016.5
1.655 	374.154 	1342.03 	49989.2
1.665 	374.849 	1349.68 	49812
1.675 	355.922 	1356.04 	49402.1
1.685 	301.824 	1361.34 	48758.9
1.695 	260.19 	1365.83 	47328.7
1.705 	238.212 	1371.09 	45868.9
1.715 	235.989 	1379.61 	44544.1
1.725 	248.415 	1389.78 	41526.3
1.735 	271.343 	1400.97 	40508.8
1.745 	295.135 	1413.96 	38619
1.755 	302.046 	1422.33 	35513.9
1.765 	307.716 	1428.66 	34771.3
1.775 	317.395 	1436.44 	33913.5
1.785 	324.546 	1443.56 	32698.9
1.795 	328.682 	1449.82 	31884.2
1.805 	330.888 	1455.92 	31225.5
1.815 	333.195 	1462.21 	30664.6
1.825 	335.428 	1468.92 	30063.5
1.835 	338.667 	1475.47 	29202.9
1.845 	344.904 	1481.94 	28391.1
1.855 	351.339 	1488.38 	27552.4
1.865 	354.14 	1492.93 	26167.3
1.875 	357.138 	1494.2 	24608.9
1.885 	372.811 	1497.26 	24434.5
1.895 	388.193 	1503.82 	24436.8
1.905 	402.275 	1512.27 	24444.3
1.915 	416.162 	1521.64 	24441.3
1.925 	429.423 	1531.51 	24433.3
1.935 	439.339 	1541.62 	24398.4
1.945 	444.048 	1551.78 	24297.2
1.955 	446.103 	1561.49 	23912
1.965 	444.364 	1567.28 	22665.6
1.975 	422.325 	1566.6 	21162.2
1.985 	376.289 	1565.82 	20367.1
1.995 	325.718 	1568.78 	19937.1
2.005 	287.731 	1575.12 	19666.2
2.015 	268.306 	1583.65 	19408.4
2.025 	263.769 	1593.83 	19171.8
2.035 	270.223 	1606 	18962.6
2.045 	316.802 	1618.93 	18073.1
2.055 	360.602 	1631.99 	17771.2
2.065 	384.786 	1646 	17762.8
2.075 	396.282 	1659.2 	17733.8
2.085 	402.005 	1670.53 	17550.2
2.095 	403.048 	1678.34 	16719.4
2.105 	400.312 	1680.81 	15212.1
2.115 	400.89 	1679.57 	14051.7
2.125 	410.335 	1678.97 	13674.7
2.135 	425.397 	1682.46 	13666.1
2.145 	435.448 	1688.63 	13667.1
2.155 	444.179 	1696.3 	13665.7
2.165 	457.557 	1704.96 	13656.2
2.175 	475.606 	1714.42 	13615.4
2.185 	490.792 	1724.11 	13496
2.195 	497.194 	1732.1 	13087
2.205 	496.072 	1734.96 	12157.7
2.215 	500.246 	1735.84 	11599.2
2.225 	512.235 	1740.3 	11554.3
2.235 	515.212 	1747.38 	11554.5
2.245 	507.003 	1755.26 	11553.5
2.255 	450.191 	1763.08 	11541
2.265 	392.332 	1770.42 	11484.6
2.275 	356.121 	1777.35 	11302.9
2.285 	336.087 	1783.86 	10923.3
2.295 	332.281 	1791.68 	10724.9
2.305 	353.227 	1802.74 	10513.3
2.315 	399.647 	1813.62 	9782.95
2.325 	425.212 	1822.58 	9572.75
2.335 	433.738 	1832.87 	9527.58
2.345 	444.281 	1843.98 	9485.54
2.355 	461.563 	1855.95 	9470.22
2.365 	474.627 	1868.13 	9413.99
2.375 	478.438 	1878.72 	9216.5
2.385 	477.924 	1886.46 	8903.11
2.395 	478.427 	1892.2 	8546.59
2.405 	479.767 	1895.64 	8102.92
2.415 	480.369 	1895.97 	7586.24
2.425 	493.269 	1897.07 	7414.23
2.435 	516.769 	1902.38 	7413.7
2.445 	538.762 	1910.21 	7415.28
2.455 	557.686 	1919.26 	7414.84
2.465 	569.911 	1928.83 	7412.83
2.475 	576.239 	1938.5 	7408.78
2.485 	580.834 	1948.14 	7391.06
2.495 	587.014 	1957.48 	7330.21
2.505 	590.203 	1964.75 	7089.68
2.515 	586.312 	1966.13 	6581.37
2.525 	583.205 	1963.8 	6201.7
2.535 	586.006 	1963.35 	6073.95
2.545 	588.083 	1967.2 	6061.48
2.555 	569.697 	1973.86 	6059.08
2.565 	494.041 	1981.47 	6060.45
2.575 	430.302 	1989.33 	6053.39
2.585 	383.574 	1997.52 	6032.05
2.595 	362 	2006.5 	6011.29
2.605 	360.246 	2017.2 	5994.88
2.615 	389.682 	2029.98 	5932.71
2.625 	436.438 	2043.4 	5722.23
2.635 	445.646 	2050.32 	5126.79
2.645 	454.398 	2052.4 	4865.04
2.655 	473.659 	2057.75 	4857.85
2.665 	490.549 	2065.28 	4833.41
2.675 	509.912 	2073.39 	4782.71
2.685 	533.514 	2082.86 	4781.47
2.695 	551.803 	2093.66 	4780.48
2.705 	562.141 	2105.4 	4776.4
2.715 	571.198 	2117.66 	4765.54
2.725 	580.185 	2130.14 	4746.42
2.735 	584.391 	2142.14 	4708.37
2.745 	584.44 	2153.13 	4650.78
2.755 	586.359 	2163.49 	4567.57
2.765 	589.866 	2171.45 	4370.55
2.775 	589.128 	2175.13 	4156.17
2.785 	586.771 	2175.57 	3928.01
2.795 	587.853 	2174.31 	3711.67
2.805 	605.567 	2175.75 	3666.39
2.815 	622.694 	2181.71 	3666.75
2.825 	635.047 	2190 	3667.13
2.835 	650.445 	2199.49 	3667.45
2.845 	669.358 	2209.67 	3666.48
2.855 	686.459 	2220.27 	3664.78
2.865 	699.254 	2231.08 	3660.13
2.875 	710.763 	2241.92 	3650.97
2.885 	723.109 	2252.29 	3612.2
2.895 	730.596 	2260.29 	3508.41
2.905 	728.559 	2261.53 	3241.86
2.915 	731.952 	2260.14 	3105.61
2.925 	753.2 	2263.68 	3097.15
2.935 	776.423 	2270.73 	3098.26
2.945 	799.841 	2279.19 	3098.48
2.955 	815.706 	2287.92 	3098.01
2.965 	820.488 	2296.2 	3095.52
2.975 	814.161 	2303.3 	3081.81
2.985 	731.456 	2309.09 	3073.05
2.995 	608.049 	2314.25 	3061.74
3.005 	517.389 	2319.07 	3035.2
3.015 	458.578 	2323.5 	2958.22
3.025 	424.888 	2328.11 	2871.8
3.035 	411.993 	2333.86 	2793.43
3.045 	418.255 	2342.4 	2748.06
3.055 	446.312 	2351.86 	2591.5
3.065 	466.861 	2356.69 	2415.33
3.075 	502.458 	2362.77 	2414.64
3.085 	537.132 	2371.34 	2414.66
3.095 	565.92 	2381.7 	2414.57
3.105 	590.667 	2393.31 	2413.93
3.115 	616.713 	2405.83 	2412.16
3.125 	646.977 	2419.09 	2406.55
3.135 	678.023 	2432.83 	2396.09
3.145 	699.292 	2446.15 	2367.07
3.155 	704.621 	2456.54 	2290.94
3.165 	699.982 	2462.22 	2187.22
3.175 	690.926 	2463.39 	2058.14
3.185 	687.729 	2462.04 	1947.57
3.195 	694.255 	2463.2 	1907.15
3.205 	706.288 	2469.01 	1907.17
3.215 	710.644 	2477.41 	1907.68
3.225 	712.093 	2486.94 	1907.87
3.235 	712.75 	2496.95 	1907.42
3.245 	715.371 	2507.17 	1907.41
3.255 	723.876 	2517.54 	1907.17
3.265 	735.739 	2528.03 	1905.62
3.275 	751.483 	2538.65 	1905.2
3.285 	768.885 	2549.36 	1903.54
3.295 	783.834 	2560.12 	1900.68
3.305 	796.159 	2570.87 	1899.62
3.315 	807.384 	2581.56 	1895.23
3.325 	823.018 	2592.19 	1890.61
3.335 	839.72 	2602.58 	1885.14
3.345 	849.888 	2612.07 	1868.46
3.355 	851.09 	2618.75 	1818.01
3.365 	838.07 	2618.33 	1669.43
3.375 	828.325 	2610.97 	1514.7
3.385 	850.409 	2605.72 	1463.71
3.395 	887.697 	2607.66 	1463.75
3.405 	914.004 	2613.77 	1464.97
3.415 	928.942 	2621.69 	1465.53
3.425 	938.893 	2630.36 	1464.96
3.435 	950.709 	2639.39 	1465.43
3.445 	967.772 	2648.65 	1465.35
3.455 	988.572 	2658.18 	1463.34
3.465 	1010.37 	2668.02 	1462.17
3.475 	1031.17 	2678.24 	1460.78
3.485 	1042.88 	2689.02 	1455.2
3.495 	1049.82 	2700.63 	1452.43
3.505 	1066.11 	2712.66 	1436.62
3.515 	1073.54 	2720.87 	1387.19
3.525 	1026.43 	2719.54 	1316.14
3.535 	852.015 	2716.71 	1287.45
3.545 	687.828 	2716.46 	1257.53
3.555 	578.444 	2719.43 	1237.21
3.565 	514.773 	2724.83 	1223.48
3.575 	484.156 	2731.77 	1212.15
3.585 	473.254 	2739.68 	1199.5
3.595 	472.487 	2748.59 	1195.17
3.605 	486.069 	2758.48 	1187.42
3.615 	543.017 	2769.06 	1172
3.625 	606.896 	2781.2 	1171.14
3.635 	666.731 	2794.92 	1171.06
3.645 	717.569 	2809.72 	1169.33
3.655 	758.963 	2825.11 	1167.15
3.665 	793.396 	2840.68 	1163.91
3.675 	823.502 	2856.19 	1159.92
3.685 	847.833 	2871.38 	1153.36
3.695 	860.368 	2885.26 	1140.41
3.705 	860.565 	2896.11 	1109.85
3.715 	844.975 	2901.25 	1041.83
3.725 	837.321 	2900.25 	970.012
3.735 	827.007 	2893.66 	877.691
3.745 	832.617 	2883.61 	810.085
3.755 	874.699 	2880.09 	804.282
3.765 	907.378 	2883.63 	805.363
3.775 	931.936 	2891.39 	810.131
3.785 	954.553 	2902.69 	824.788
3.795 	975.065 	2917.43 	847.278
3.805 	986.79 	2932.01 	849.721
3.815 	997.134 	2945.34 	849.711
3.825 	1011.35 	2958.08 	849.618
3.835 	1032.24 	2970.53 	849.206
3.845 	1051.38 	2982.55 	847.619
3.855 	1058.68 	2993.27 	841.303
3.865 	1054.84 	3001.16 	822.841
3.875 	1041.95 	3004.98 	789.218
3.885 	1036.3 	3004.84 	753.16