-4.995 	500 	2.64344e-12 	1.5e+07
-4.985 	500 	2.4401e-12 	1.5e+07
-4.975 	500 	4.06683e-13 	1.5e+07
-4.965 	500 	6.10025e-13 	1.5e+07
-4.955 	500 	1.83007e-12 	1.5e+07
-4.945 	500 	1.62673e-12 	1.5e+07
-4.935 	500 	7.69745e-26 	1.5e+07
-4.925 	500 	7.70178e-26 	1.5e+07
-4.915 	500 	1.62673e-12 	1.5e+07
-4.905 	500 	1.83007e-12 	1.5e+07
-4.895 	500 	6.10003e-12 	1.5e+07
-4.885 	500 	4.47334e-12 	1.5e+07
-4.875 	500 	2.03342e-13 	1.5e+07
-4.865 	500 	1.66672e-25 	1.5e+07
-4.855 	500 	5.9556e-75 	1.5e+07
-4.845 	500 	1.41127e-25 	1.5e+07
-4.835 	500 	6.10025e-13 	1.5e+07
-4.825 	500 	8.13366e-13 	1.5e+07
-4.815 	500 	9.26357e-25 	1.5e+07
-4.805 	500 	3.66e-12 	1.5e+07
-4.795 	500 	2.84661e-12 	1.5e+07
-4.785 	500 	1.62673e-12 	1.5e+07
-4.775 	500 	1.83007e-12 	1.5e+07
-4.765 	500 	2.64344e-12 	1.5e+07
-4.755 	500 	4.06683e-13 	1.5e+07
-4.745 	500 	1.53949e-25 	1.5e+07
-4.735 	500 	7.70733e-74 	1.5e+07
-4.725 	500 	2.4401e-12 	1.5e+07
-4.715 	500 	1.50367e-34 	1.5e+07
-4.705 	500 	2.0334e-12 	1.5e+07
-4.695 	500 	1.66844e-25 	1.5e+07
-4.685 	500 	1.07763e-11 	1.5e+07
-4.675 	500 	9.75974e-12 	1.5e+07
-4.665 	500 	1.22005e-12 	1.5e+07
-4.655 	500 	1.01671e-12 	1.5e+07
-4.645 	500 	1.66769e-25 	1.5e+07
-4.635 	500 	2.03342e-12 	1.5e+07
-4.625 	500 	2.64344e-12 	1.5e+07
-4.615 	500 	2.71122e-18 	1.5e+07
-4.605 	500 	3.52459e-17 	1.5e+07
-4.595 	500 	1.36697e-35 	1.5e+07
-4.585 	500 	2.64344e-12 	1.5e+07
-4.575 	500 	2.03342e-12 	1.5e+07
-4.565 	500 	5.13163e-26 	1.5e+07
-4.555 	500 	1.02562e-25 	1.5e+07
-4.545 	500 	5.49002e-12 	1.5e+07
-4.535 	500 	3.86332e-12 	1.5e+07
-4.525 	500 	2.16898e-17 	1.5e+07
-4.515 	500 	2.64344e-12 	1.5e+07
-4.505 	500 	6.10025e-13 	1.5e+07
-4.495 	500 	1.41475e-25 	1.5e+07
-4.485 	500 	1.01503e-113 	1.5e+07
-4.475 	500 	2.90376e-81 	1.5e+07
-4.465 	500 	1.53953e-25 	1.5e+07
-4.455 	500 	4.06683e-13 	1.5e+07
-4.445 	500 	6.10025e-13 	1.5e+07
-4.435 	500 	5.46797e-35 	1.5e+07
-4.425 	500 	1.62673e-12 	1.5e+07
-4.415 	500 	1.42339e-12 	1.5e+07
-4.405 	500 	8.97583e-26 	1.5e+07
-4.395 	500 	6.41485e-26 	1.5e+07
-4.385 	500 	1.83007e-12 	1.5e+07
-4.375 	500 	2.03342e-12 	1.5e+07
-4.365 	500 	4.06683e-13 	1.5e+07
-4.355 	500 	0 	1.5e+07
-4.345 	500 	0 	1.5e+07
-4.335 	500 	2.03342e-13 	1.5e+07
-4.325 	500 	4.06683e-13 	1.5e+07
-4.315 	500 	6.71003e-12 	1.5e+07
-4.305 	500 	6.3033e-12 	1.5e+07
-4.295 	500 	1.01671e-12 	1.5e+07
-4.285 	500 	1.42339e-12 	1.5e+07
-4.275 	500 	5.48998e-12 	1.5e+07
-4.265 	500 	3.25327e-12 	1.5e+07
-4.255 	500 	4.27008e-12 	1.5e+07
-4.245 	500 	3.86332e-12 	1.5e+07
-4.235 	500 	2.64344e-12 	1.5e+07
-4.225 	500 	2.03372e-13 	1.5e+07
-4.215 	500 	9.25048e-28 	1.5e+07
-4.205 	500 	2.03342e-13 	1.5e+07
-4.195 	500 	2.64344e-12 	1.5e+07
-4.185 	500 	0 	1.5e+07
-4.175 	500 	1.83007e-12 	1.5e+07
-4.165 	500 	1.01671e-12 	1.5e+07
-4.155 	500 	0 	1.5e+07
-4.145 	500 	1.42339e-12 	1.5e+07
-4.135 	500 	5.89669e-12 	1.5e+07
-4.125 	500 	6.30332e-12 	1.5e+07
-4.115 	500 	1.28356e-25 	1.5e+07
-4.105 	500 	2.56477e-26 	1.5e+07
-4.095 	500 	2.4401e-12 	1.5e+07
-4.085 	500 	2.64344e-12 	1.5e+07
-4.075 	500 	2.03342e-13 	1.5e+07
-4.065 	500 	0 	1.5e+07
-4.055 	500 	5.13205e-25 	1.5e+07
-4.045 	500 	3.45666e-12 	1.5e+07
-4.035 	500 	4.67671e-12 	1.5e+07
-4.025 	500 	1.6691e-25 	1.5e+07
-4.015 	500 	1.42339e-12 	1.5e+07
-4.005 	500 	1.62673e-12 	1.5e+07
-3.995 	500 	5.46797e-35 	1.5e+07
-3.985 	500 	2.03334e-12 	1.5e+07
-3.975 	500 	2.23667e-12 	1.5e+07
-3.965 	500 	2.03342e-13 	1.5e+07
-3.955 	500 	5.86962e-28 	1.5e+07
-3.945 	500 	2.64344e-12 	1.5e+07
-3.935 	500 	2.23676e-12 	1.5e+07
-3.925 	500 	4.67656e-12 	1.5e+07
-3.915 	500 	3.45663e-12 	1.5e+07
-3.905 	500 	1.01671e-12 	1.5e+07
-3.895 	500 	2.4401e-12 	1.5e+07
-3.885 	500 	1.42339e-12 	1.5e+07
-3.875 	500 	1.01671e-12 	1.5e+07
-3.865 	500 	8.13366e-13 	1.5e+07
-3.855 	500 	3.84695e-26 	1.5e+07
-3.845 	500 	2.23676e-12 	1.5e+07
-3.835 	500 	2.4401e-12 	1.5e+07
-3.825 	500 	1.50638e-24 	1.5e+07
-3.815 	500 	6.10098e-13 	1.5e+07
-3.805 	500 	3.05007e-12 	1.5e+07
-3.795 	500 	6.10025e-13 	1.5e+07
-3.785 	500 	8.13366e-13 	1.5e+07
-3.775 	500 	3.74577e-114 	1.5e+07
-3.765 	500 	8.97669e-26 	1.5e+07
-3.755 	500 	1.42339e-12 	1.5e+07
-3.745 	500 	1.62673e-12 	1.5e+07
-3.735 	500 	1.83008e-12 	1.5e+07
-3.725 	500 	2.64342e-12 	1.5e+07
-3.715 	500 	4.06683e-13 	1.5e+07
-3.705 	500 	2.69839e-25 	1.5e+07
-3.695 	500 	7.93001e-12 	1.5e+07
-3.685 	500 	7.32001e-12 	1.5e+07
-3.675 	500 	2.31614e-25 	1.5e+07
-3.665 	500 	0 	1.5e+07
-3.655 	500 	8.13366e-13 	1.5e+07
-3.645 	500 	4.27007e-12 	1.5e+07
-3.635 	500 	5.4901e-12 	1.5e+07
-3.625 	500 	2.6434e-12 	1.5e+07
-3.615 	500 	1.66928e-25 	1.5e+07
-3.605 	500 	1.83007e-12 	1.5e+07
-3.595 	500 	2.03342e-12 	1.5e+07
-3.585 	500 	6.12516e-74 	1.5e+07
-3.575 	500 	1.28318e-26 	1.5e+07
-3.565 	500 	2.64344e-12 	1.5e+07
-3.555 	500 	2.44007e-12 	1.5e+07
-3.545 	500 	8.13551e-13 	1.5e+07
-3.535 	500 	3.25343e-12 	1.5e+07
-3.525 	500 	3.1518e-12 	1.5e+07
-3.515 	500 	1.01671e-12 	1.5e+07
-3.505 	500 	1.22005e-12 	1.5e+07
-3.495 	500 	1.22005e-12 	1.5e+07
-3.485 	500 	1.01671e-12 	1.5e+07
-3.475 	500 	8.13357e-13 	1.5e+07
-3.465 	500 	1.22e-12 	1.5e+07
-3.455 	500 	4.16818e-12 	1.5e+07
-3.445 	500 	3.9651e-12 	1.5e+07
-3.435 	500 	1.32162e-12 	1.5e+07
-3.425 	500 	2.64343e-12 	1.5e+07
-3.415 	500 	2.23676e-12 	1.5e+07
-3.405 	500 	3.85375e-26 	1.5e+07
-3.395 	500 	1.83007e-12 	1.5e+07
-3.385 	500 	1.62673e-12 	1.5e+07
-3.375 	500 	3.86334e-12 	1.5e+07
-3.365 	500 	5.49014e-12 	1.5e+07
-3.355 	500 	1.62673e-12 	1.5e+07
-3.345 	500 	8.13366e-13 	1.5e+07
-3.335 	500 	6.10025e-13 	1.5e+07
-3.325 	500 	1.41277e-25 	1.5e+07
-3.315 	500 	1.28227e-26 	1.5e+07
-3.305 	500 	2.64344e-12 	1.5e+07
-3.295 	500 	1.52515e-12 	1.5e+07
-3.285 	500 	2.64342e-12 	1.5e+07
-3.275 	500 	2.64337e-12 	1.5e+07
-3.265 	500 	5.19237e-26 	1.5e+07
-3.255 	500 	2.64344e-12 	1.5e+07
-3.245 	500 	1.42339e-12 	1.5e+07
-3.235 	500 	8.9978e-26 	1.5e+07
-3.225 	500 	1.0167e-12 	1.5e+07
-3.215 	500 	8.13357e-13 	1.5e+07
-3.205 	500 	2.03339e-12 	1.5e+07
-3.195 	500 	2.23673e-12 	1.5e+07
-3.185 	500 	2.03342e-13 	1.5e+07
-3.175 	500 	3.96495e-12 	1.5e+07
-3.165 	500 	2.54169e-12 	1.5e+07
-3.155 	500 	2.23667e-12 	1.5e+07
-3.145 	500 	4.06675e-12 	1.5e+07
-3.135 	500 	1.83007e-12 	1.5e+07
-3.125 	500 	1.01671e-12 	1.5e+07
-3.115 	500 	4.06685e-12 	1.5e+07
-3.105 	500 	6.10157e-13 	1.5e+07
-3.095 	500 	1.52498e-12 	1.5e+07
-3.085 	500 	1.21998e-12 	1.5e+07
-3.075 	500 	2.23678e-12 	1.5e+07
-3.065 	500 	2.23676e-12 	1.5e+07
-3.055 	500 	5.8775e-75 	1.5e+07
-3.045 	500 	1.67282e-25 	1.5e+07
-3.035 	500 	2.03342e-13 	1.5e+07
-3.025 	500 	5.28681e-12 	1.5e+07
-3.015 	500 	2.64339e-12 	1.5e+07
-3.005 	500 	3.66008e-12 	1.5e+07
-2.995 	500 	1.45812e-39 	1.5e+07
-2.985 	500 	3.25337e-12 	1.5e+07
-2.975 	500 	7.11642e-13 	1.5e+07
-2.965 	500 	2.64338e-12 	1.5e+07
-2.955 	500 	3.65998e-12 	1.5e+07
-2.945 	500 	2.03334e-12 	1.5e+07
-2.935 	500 	1.77709e-34 	1.5e+07
-2.925 	500 	1.28313e-26 	1.5e+07
-2.915 	500 	2.64341e-12 	1.5e+07
-2.905 	500 	3.25347e-17 	1.5e+07
-2.895 	500 	1.72846e-12 	1.5e+07
-2.885 	500 	5.28656e-12 	1.5e+07
-2.875 	500 	5.48994e-12 	1.5e+07
-2.865 	500 	3.86325e-12 	1.5e+07
-2.855 	500 	3.25337e-12 	1.5e+07
-2.845 	500 	8.98649e-26 	1.5e+07
-2.835 	500 	1.01667e-12 	1.5e+07
-2.825 	500 	1.62676e-12 	1.5e+07
-2.815 	500 	5.3884e-12 	1.5e+07
-2.805 	500 	4.8799e-12 	1.5e+07
-2.795 	500 	1.54195e-25 	1.5e+07
-2.785 	500 	1.42246e-38 	1.5e+07
-2.775 	500 	2.4401e-12 	1.5e+07
-2.765 	500 	2.23676e-12 	1.5e+07
-2.755 	500 	2.64344e-12 	1.5e+07
-2.745 	500 	1.15382e-25 	1.5e+07
-2.735 	500 	1.01671e-12 	1.5e+07
-2.725 	500 	2.64344e-12 	1.5e+07
-2.715 	500 	2.54177e-12 	1.5e+07
-2.705 	500 	6.423e-26 	1.5e+07
-2.695 	500 	1.83007e-12 	1.5e+07
-2.685 	500 	2.03342e-12 	1.5e+07
-2.675 	500 	4.06683e-13 	1.5e+07
-2.665 	500 	1.52506e-12 	1.5e+07
-2.655 	500 	2.64344e-12 	1.5e+07
-2.645 	500 	1.28362e-26 	1.5e+07
-2.635 	500 	0 	1.5e+07
-2.625 	500 	1.23027e-34 	1.5e+07
-2.615 	500 	8.13506e-13 	1.5e+07
-2.605 	500 	4.67665e-12 	1.5e+07
-2.595 	500 	2.4401e-12 	1.5e+07
-2.585 	500 	5.28672e-12 	1.5e+07
-2.575 	500 	2.33826e-12 	1.5e+07
-2.565 	500 	1.83007e-12 	1.5e+07
-2.555 	500 	6.10025e-13 	1.5e+07
-2.545 	500 	4.06683e-13 	1.5e+07
-2.535 	500 	2.03342e-13 	1.5e+07
-2.525 	500 	3.96495e-12 	1.5e+07
-2.515 	500 	2.54169e-12 	1.5e+07
-2.505 	500 	4.06683e-13 	1.5e+07
-2.495 	500 	6.10025e-13 	1.5e+07
-2.485 	500 	2.46053e-34 	1.5e+07
-2.475 	500 	0 	1.5e+07
-2.465 	500 	1.27586e-39 	1.5e+07
-2.455 	500 	1.22005e-12 	1.5e+07
-2.445 	500 	2.03342e-12 	1.5e+07
-2.435 	500 	3.15161e-12 	1.5e+07
-2.425 	500 	4.67659e-12 	1.5e+07
-2.415 	500 	4.06683e-13 	1.5e+07
-2.405 	500 	2.03342e-13 	1.5e+07
-2.395 	500 	1.67136e-25 	1.5e+07
-2.385 	500 	1.36699e-35 	1.5e+07
-2.375 	500 	2.73398e-35 	1.5e+07
-2.365 	500 	0 	1.5e+07
-2.355 	500 	5.50828e-74 	1.5e+07
-2.345 	500 	1.62673e-12 	1.5e+07
-2.335 	500 	1.42339e-12 	1.5e+07
-2.325 	500 	1.22005e-12 	1.5e+07
-2.315 	500 	1.01671e-12 	1.5e+07
-2.305 	500 	1.1571e-25 	1.5e+07
-2.295 	500 	3.84891e-26 	1.5e+07
-2.285 	500 	2.23676e-12 	1.5e+07
-2.275 	500 	2.4401e-12 	1.5e+07
-2.265 	500 	2.64344e-12 	1.5e+07
-2.255 	500 	2.74509e-12 	1.5e+07
-2.245 	500 	6.09992e-13 	1.5e+07
-2.235 	500 	6.10025e-13 	1.5e+07
-2.225 	500 	8.13366e-13 	1.5e+07
-2.215 	500 	3.14405e-34 	1.5e+07
-2.205 	500 	0 	1.5e+07
-2.195 	500 	9.56895e-35 	1.5e+07
-2.185 	500 	1.62673e-12 	1.5e+07
-2.175 	500 	3.66015e-12 	1.5e+07
-2.165 	500 	2.03342e-12 	1.5e+07
-2.155 	500 	2.56906e-26 	1.5e+07
-2.145 	500 	2.4401e-12 	1.5e+07
-2.135 	500 	-2.20099e-28 	1.5e+07
-2.125 	500 	2.74509e-12 	1.5e+07
-2.115 	500 	5.48989e-12 	1.5e+07
-2.105 	500 	3.35501e-12 	1.5e+07
-2.095 	500 	1.83007e-12 	1.5e+07
-2.085 	500 	4.57519e-12 	1.5e+07
-2.075 	500 	1.42339e-12 	1.5e+07
-2.065 	500 	8.98536e-26 	1.5e+07
-2.055 	500 	1.01671e-12 	1.5e+07
-2.045 	500 	8.13366e-13 	1.5e+07
-2.035 	500 	1.28235e-25 	1.5e+07
-2.025 	500 	4.06683e-13 	1.5e+07
-2.015 	500 	2.03342e-13 	1.5e+07
-2.005 	500 	2.64341e-12 	1.5e+07
-1.995 	500 	2.71122e-18 	1.5e+07
-1.985 	500 	1.34195e-11 	1.5e+07
-1.975 	500 	1.07761e-11 	1.5e+07
-1.965 	500 	3.66011e-12 	1.5e+07
-1.955 	500 	5.89674e-12 	1.5e+07
-1.945 	500 	3.52459e-17 	1.5e+07
-1.935 	500 	3.52459e-17 	1.5e+07
-1.925 	500 	1.098e-11 	1.5e+07
-1.915 	500 	3.6602e-12 	1.5e+07
-1.905 	500 	5.0831e-12 	1.5e+07
-1.895 	500 	2.64338e-12 	1.5e+07
-1.885 	500 	2.5417e-12 	1.5e+07
-1.875 	500 	1.32162e-12 	1.5e+07
-1.865 	500 	3.85076e-24 	1.5e+07
-1.855 	500 	8.74314e-12 	1.5e+07
-1.845 	500 	2.64323e-12 	1.5e+07
-1.835 	500 	6.70984e-12 	1.5e+07
-1.825 	500 	6.70983e-12 	1.5e+07
-1.815 	500 	7.31968e-12 	1.5e+07
-1.805 	500 	1.22002e-12 	1.5e+07
-1.795 	500 	7.11657e-12 	1.5e+07
-1.785 	500 	7.72651e-12 	1.5e+07
-1.775 	500 	4.06673e-12 	1.5e+07
-1.765 	500 	5.42245e-18 	1.5e+07
-1.755 	500 	1.24028e-11 	1.5e+07
-1.745 	500 	1.58594e-11 	1.5e+07
-1.735 	500 	4.88004e-12 	1.5e+07
-1.725 	500 	5.69375e-12 	1.5e+07
-1.715 	500 	9.75993e-12 	1.5e+07
-1.705 	500 	4.06659e-12 	1.5e+07
-1.695 	500 	3.65985e-12 	1.5e+07
-1.685 	500 	9.5564e-12 	1.5e+07
-1.675 	500 	2.64323e-12 	1.5e+07
-1.665 	500 	6.60812e-12 	1.5e+07
-1.655 	500 	2.54181e-12 	1.5e+07
-1.645 	500 	1.83003e-12 	1.5e+07
-1.635 	500 	8.1334e-13 	1.5e+07
-1.625 	500 	2.44007e-12 	1.5e+07
-1.615 	500 	3.52459e-17 	1.5e+07
-1.605 	500 	3.52459e-17 	1.5e+07
-1.595 	500 	8.13419e-13 	1.5e+07
-1.585 	500 	6.10008e-13 	1.5e+07
-1.575 	500 	8.13345e-13 	1.5e+07
-1.565 	500 	5.2866e-12 	1.5e+07
-1.555 	500 	1.13871e-16 	1.5e+07
-1.545 	500 	2.44004e-12 	1.5e+07
-1.535 	500 	3.52459e-17 	1.5e+07
-1.525 	500 	2.46053e-34 	1.5e+07
-1.515 	500 	0 	1.5e+07
-1.505 	500 	5.49009e-12 	1.5e+07
-1.495 	500 	4.27009e-12 	1.5e+07
-1.485 	500 	3.38522e-25 	1.5e+07
-1.475 	500 	2.44004e-12 	1.5e+07
-1.465 	500 	5.59166e-12 	1.5e+07
-1.455 	500 	4.37177e-12 	1.5e+07
-1.445 	500 	1.62671e-12 	1.5e+07
-1.435 	500 	2.0334e-12 	1.5e+07
-1.425 	500 	2.44004e-12 	1.5e+07
-1.415 	500 	6.09978e-13 	1.5e+07
-1.405 	500 	1.3217e-12 	1.5e+07
-1.395 	500 	4.37167e-12 	1.5e+07
-1.385 	500 	1.13864e-11 	1.5e+07
-1.375 	500 	6.70944e-12 	1.5e+07
-1.365 	500 	5.89673e-12 	1.5e+07
-1.355 	500 	1.40984e-16 	1.5e+07
-1.345 	500 	2.43992e-12 	1.5e+07
-1.335 	500 	1.09794e-11 	1.5e+07
-1.325 	500 	1.28095e-11 	1.5e+07
-1.315 	500 	1.07764e-11 	1.5e+07
-1.305 	500 	1.26064e-11 	1.5e+07
-1.295 	500 	3.4568e-12 	1.5e+07
-1.285 	500 	7.11643e-12 	1.5e+07
-1.275 	500 	1.11832e-11 	1.5e+07
-1.265 	500 	3.4567e-12 	1.5e+07
-1.255 	500 	3.04992e-12 	1.5e+07
-1.245 	500 	1.62672e-12 	1.5e+07
-1.235 	500 	2.44003e-12 	1.5e+07
-1.225 	500 	3.00818e-30 	1.5e+07
-1.215 	500 	2.71122e-18 	1.5e+07
-1.205 	500 	1.93182e-12 	1.5e+07
-1.195 	500 	3.965e-12 	1.5e+07
-1.185 	500 	7.72657e-12 	1.5e+07
-1.175 	500 	3.25338e-12 	1.5e+07
-1.165 	500 	3.52459e-17 	1.5e+07
-1.155 	500 	9.56868e-35 	1.5e+07
-1.145 	500 	2.03342e-12 	1.5e+07
-1.135 	500 	8.33642e-12 	1.5e+07
-1.125 	500 	5.69328e-12 	1.5e+07
-1.115 	500 	3.05008e-12 	1.5e+07
-1.105 	500 	2.84665e-12 	1.5e+07
-1.095 	500 	5.28678e-12 	1.5e+07
-1.085 	500 	4.88008e-12 	1.5e+07
-1.075 	500 	3.52459e-17 	1.5e+07
-1.065 	500 	1.22015e-12 	1.5e+07
-1.055 	500 	1.6267e-12 	1.5e+07
-1.045 	500 	1.62669e-12 	1.5e+07
-1.035 	500 	4.87977e-12 	1.5e+07
-1.025 	500 	1.07764e-11 	1.5e+07
-1.015 	500 	1.01668e-12 	1.5e+07
-1.005 	500 	6.71004e-12 	1.5e+07
-0.995 	500 	4.47336e-12 	1.5e+07
-0.985 	500 	4.8801e-12 	1.5e+07
-0.975 	500 	2.84675e-12 	1.5e+07
-0.965 	500 	2.64337e-12 	1.5e+07
-0.955 	500 	2.03336e-13 	1.5e+07
-0.945 	500 	2.23668e-12 	1.5e+07
-0.935 	500 	6.10029e-13 	1.5e+07
-0.925 	500 	2.64334e-12 	1.5e+07
-0.915 	500 	2.0334e-12 	1.5e+07
-0.905 	500 	2.44004e-12 	1.5e+07
-0.895 	500 	1.22e-12 	1.5e+07
-0.885 	500 	1.62667e-12 	1.5e+07
-0.875 	500 	1.08449e-17 	1.5e+07
-0.865 	500 	6.10036e-13 	1.5e+07
-0.855 	500 	2.23674e-12 	1.5e+07
-0.845 	500 	2.71122e-18 	1.5e+07
-0.835 	500 	3.52459e-17 	1.5e+07
-0.825 	500 	2.03372e-13 	1.5e+07
-0.815 	500 	4.06672e-13 	1.5e+07
-0.805 	500 	2.03331e-12 	1.5e+07
-0.795 	500 	1.83002e-12 	1.5e+07
-0.785 	500 	2.16898e-17 	1.5e+07
-0.775 	500 	1.62673e-17 	1.5e+07
-0.765 	500 	5.08334e-12 	1.5e+07
-0.755 	500 	7.72661e-12 	1.5e+07
-0.745 	500 	5.89646e-12 	1.5e+07
-0.735 	500 	5.28678e-12 	1.5e+07
-0.725 	500 	3.05008e-12 	1.5e+07
-0.715 	500 	3.52459e-17 	1.5e+07
-0.705 	500 	7.04918e-17 	1.5e+07
-0.695 	500 	4.88009e-12 	1.5e+07
-0.685 	500 	3.52459e-17 	1.5e+07
-0.675 	500 	6.10063e-13 	1.5e+07
-0.665 	500 	2.64338e-12 	1.5e+07
-0.655 	500 	5.69309e-12 	1.5e+07
-0.645 	500 	8.74308e-12 	1.5e+07
-0.635 	500 	2.64337e-12 	1.5e+07
-0.625 	500 	1.01668e-12 	1.5e+07
-0.615 	500 	4.47342e-12 	1.5e+07
-0.605 	500 	4.67679e-12 	1.5e+07
-0.595 	500 	1.30139e-16 	1.5e+07
-0.585 	500 	3.25347e-17 	1.5e+07
-0.575 	500 	5.28678e-12 	1.5e+07
-0.565 	500 	4.88008e-12 	1.5e+07
-0.555 	500 	4.06779e-13 	1.5e+07
-0.545 	500 	6.10008e-13 	1.5e+07
-0.535 	500 	1.83003e-12 	1.5e+07
-0.525 	500 	1.62669e-12 	1.5e+07
-0.515 	500 	5.69294e-12 	1.5e+07
-0.505 	500 	6.30288e-12 	1.5e+07
-0.495 	500 	1.6267e-12 	1.5e+07
-0.485 	500 	2.64337e-12 	1.5e+07
-0.475 	500 	6.10008e-13 	1.5e+07
-0.465 	500 	2.2367e-12 	1.5e+07
-0.455 	500 	2.64337e-12 	1.5e+07
-0.445 	500 	2.6433e-12 	1.5e+07
-0.435 	500 	2.0339e-13 	1.5e+07
-0.425 	500 	1.05135e-11 	1.5e+07
-0.415 	500 	4.0122e-10 	1.5e+07
-0.405 	500 	4.80568e-09 	1.5e+07
-0.395 	500 	3.9909e-08 	1.5e+07
-0.385 	500 	2.98669e-07 	1.5e+07
-0.375 	500 	2.06724e-06 	1.5e+07
-0.365 	500 	1.32613e-05 	1.5e+07
-0.355 	500 	7.8662e-05 	1.5e+07
-0.345 	500 	0.000430092 	1.5e+07
-0.335 	500 	0.00216011 	1.49999e+07
-0.325 	499.998 	0.00992681 	1.49995e+07
-0.315 	499.989 	0.0415343 	1.49978e+07
-0.305 	499.956 	0.162034 	1.49914e+07
-0.295 	499.851 	0.545651 	1.4971e+07
-0.285 	499.571 	1.57516 	1.4916e+07
-0.275 	498.943 	3.8703 	1.4794e+07
-0.265 	497.796 	8.068 	1.45732e+07
-0.255 	496.068 	14.4147 	1.42454e+07
-0.245 	493.849 	22.597 	1.38339e+07
-0.235 	491.307 	32.0213 	1.33745e+07
-0.225 	488.578 	42.1772 	1.28959e+07
-0.215 	485.748 	52.7576 	1.24146e+07
-0.205 	482.859 	63.6013 	1.19388e+07
-0.195 	479.933 	74.6197 	1.14728e+07
-0.185 	476.985 	85.7619 	1.10188e+07
-0.175 	474.024 	96.9962 	1.05783e+07
-0.165 	471.056 	108.298 	1.01516e+07
-0.155 	468.086 	119.654 	9.73896e+06
-0.145 	465.122 	131.052 	9.34048e+06
-0.135 	462.175 	142.482 	8.95597e+06
-0.125 	459.23 	153.933 	8.585e+06
-0.115 	456.168 	165.411 	8.22723e+06
-0.105 	453.158 	176.924 	7.88324e+06
-0.095 	450.472 	188.427 	7.55225e+06
-0.085 	447.199 	199.96 	7.23292e+06
-0.075 	444.604 	211.507 	6.92647e+06
-0.065 	441.303 	223.055 	6.63114e+06
-0.055 	438.859 	234.623 	6.34758e+06
-0.045 	435.415 	246.197 	6.07499e+06
-0.035 	432.963 	257.779 	5.81301e+06
-0.025 	429.955 	269.369 	5.56139e+06
-0.015 	426.753 	280.969 	5.31961e+06
-0.005 	424.396 	292.581 	5.08719e+06
0.005 	421.433 	304.185 	4.86423e+06
0.015 	418.118 	315.806 	4.65021e+06
0.025 	415.62 	327.453 	4.44444e+06
0.035 	413.216 	339.082 	4.24695e+06
0.045 	410.021 	350.703 	4.05782e+06
0.055 	406.755 	362.357 	3.87627e+06
0.065 	404.234 	374.049 	3.70182e+06
0.075 	402.134 	385.722 	3.53429e+06
0.085 	399.32 	397.356 	3.37427e+06
0.095 	396.058 	409.017 	3.22094e+06
0.105 	392.815 	420.71 	3.07381e+06
0.115 	390.203 	432.462 	2.93259e+06
0.125 	388.257 	444.213 	2.79692e+06
0.135 	386.134 	455.903 	2.66706e+06
0.145 	383.229 	467.571 	2.54332e+06
0.155 	380.168 	479.297 	2.42464e+06
0.165 	376.911 	490.995 	2.31056e+06
0.175 	373.361 	502.763 	2.20216e+06
0.185 	371.183 	514.699 	2.09745e+06
0.195 	369.727 	526.526 	1.99633e+06
0.205 	367.568 	538.286 	1.90119e+06
0.215 	365.827 	550.176 	1.81007e+06
0.225 	364.17 	561.958 	1.72193e+06
0.235 	360.94 	573.552 	1.63853e+06
0.245 	356.392 	585.239 	1.55979e+06
0.255 	352.378 	597.185 	1.48391e+06
0.265 	349.62 	609.238 	1.41013e+06
0.275 	347.276 	621.203 	1.33932e+06
0.285 	344.793 	633.147 	1.27252e+06
0.295 	342.874 	645.26 	1.20892e+06
0.305 	342.382 	657.558 	1.14807e+06
0.315 	342.731 	669.873 	1.089e+06
0.325 	342.289 	681.277 	1.03095e+06
0.335 	338.98 	692.948 	982128
0.345 	336.93 	705.371 	933076
0.355 	336.71 	717.884 	883717
0.365 	335.374 	729.177 	835071
0.375 	328.708 	740.418 	794765
0.385 	321.214 	752.493 	755823
0.395 	317.618 	765.34 	716257
0.405 	316.508 	778.095 	675639
0.415 	314.352 	790.121 	637180
0.425 	309.601 	801.801 	602676
0.435 	304.017 	813.885 	571038
0.445 	300.469 	826.656 	539969
0.455 	299.971 	840.092 	510091
0.465 	301.283 	853.607 	479160
0.475 	301.646 	865.661 	447575
0.485 	298.49 	876.596 	423611
0.495 	291.919 	888.605 	402177
0.505 	291.776 	903.696 	384693
0.515 	296.588 	919.228 	355857
0.525 	301.071 	932.343 	330937
0.535 	300.821 	942.438 	307316
0.545 	291.599 	951.941 	293571
0.555 	278.11 	963.972 	280551
0.565 	277.946 	981.185 	271747
0.575 	291.448 	1002.12 	251421
0.585 	302.333 	1019.36 	228853
0.595 	309.629 	1033.85 	211741
0.605 	314.773 	1045.42 	197451
0.615 	315.835 	1054.7 	183889
0.625 	309.534 	1062.09 	174673
0.635 	287.565 	1071.89 	168297
0.645 	273.047 	1084.69 	161417
0.655 	275.201 	1103.68 	157693
0.665 	306.109 	1128.57 	147334
0.675 	327.678 	1149.23 	130238
0.685 	341.697 	1164.67 	120690
0.695 	352.621 	1178.75 	113536
0.705 	359.03 	1190.46 	106125
0.715 	362.82 	1200.48 	100419
0.725 	360.967 	1207.76 	94314.2
0.735 	342.623 	1215.75 	91436.6
0.745 	314.059 	1226.41 	88390.1
0.755 	298.057 	1239.84 	85089.6
0.765 	299.934 	1259.09 	83542.8
0.775 	340.895 	1284.97 	79306.9
0.785 	372.281 	1307.71 	69654.6
0.795 	390.473 	1324.61 	64976.7
0.805 	404.667 	1340.54 	61584.7
0.815 	418.21 	1355.21 	58305
0.825 	433.171 	1369.73 	55732.3
0.835 	442.762 	1383.08 	52672
0.845 	449.74 	1394.16 	50070.2
0.855 	451.359 	1403.34 	47387.4
0.865 	444.836 	1410.15 	45350.8
0.875 	413.442 	1418.74 	44114.6
0.885 	377.116 	1429.46 	42784.9
0.895 	352.087 	1442.46 	41364.7
0.905 	345.709 	1459.21 	40368.9
0.915 	374.358 	1482.99 	39616
0.925 	448.485 	1512.08 	36631.2
0.935 	480.959 	1533.4 	32492.5
0.945 	503.322 	1548.99 	30765.3
0.955 	519.823 	1563.72 	29412.7
0.965 	529.356 	1576.14 	27938.8
0.975 	536.037 	1587.17 	26862
0.985 	535.319 	1595.85 	25557.2
0.995 	519.871 	1604.03 	24891.7
1.005 	481.7 	1614.27 	24260.6
1.015 	446.962 	1626.5 	23634.3
1.025 	427.545 	1640.9 	22925.4
1.035 	428.244 	1659.78 	22609.9
1.045 	481.85 	1685.26 	21992
1.055 	540.479 	1711.3 	20138.5
1.065 	563.472 	1730.38 	18647.9
1.075 	583.18 	1745.98 	17775.2
1.085 	604.403 	1761.69 	17171.2
1.095 	617.697 	1776.35 	16399.7
1.105 	628.001 	1788.81 	15733.4
1.115 	631.959 	1799.81 	15078.1
1.125 	627.278 	1807.83 	14448.6
1.135 	595.406 	1816.63 	14131.6
1.145 	545.416 	1827.01 	13782.4
1.155 	499.105 	1839.14 	13444.8
1.165 	468.776 	1853.31 	13079.1
1.175 	461.127 	1870.76 	12818
1.185 	495.256 	1894.44 	12622.6
1.195 	591.345 	1923.18 	11828.7
1.205 	635.9 	1946.51 	10804.3
1.215 	651.193 	1964.77 	10233.9
1.225 	664.231 	1978.77 	9680.48
1.235 	696.635 	1994.92 	9527.95
1.245 	717.53 	2012.94 	9216
1.255 	736.666 	2028.94 	8836.39
1.265 	768.66 	2045.48 	8624.86
1.275 	795.975 	2062.86 	8365.61
1.285 	812.839 	2077.97 	8020.39
1.295 	827.294 	2090.98 	7755.16
1.305 	831.215 	2101.58 	7441.43
1.315 	821.493 	2108.85 	7175.11
1.325 	770.448 	2116.84 	7039.85
1.335 	693.543 	2126.35 	6885.35
1.345 	618.765 	2137.4 	6737
1.355 	561.922 	2150.4 	6588.47
1.365 	532.138 	2165.49 	6407.18
1.375 	529.488 	2184.41 	6324.2
1.385 	597.244 	2210.5 	6220.49
1.395 	725.896 	2242.49 	5813.84
1.405 	766.304 	2265.61 	5235.34
1.415 	777.246 	2282.07 	4970.94
1.425 	790.262 	2296.33 	4741.61
1.435 	815.232 	2311.1 	4590.07
1.445 	846.603 	2328.26 	4513.63
1.455 	878.017 	2347.47 	4447.26
1.465 	907.168 	2367.62 	4359.1
1.475 	924.113 	2386.89 	4202.62
1.485 	939.929 	2401.14 	3969.18
1.495 	994.981 	2416.29 	3901.8
1.505 	1041.95 	2434.1 	3801.01
1.515 	1069.8 	2449.89 	3660.73
1.525 	1095.9 	2463.54 	3558.31
1.535 	1109.02 	2475.85 	3453.06
1.545 	1105.52 	2484.06 	3324.41
1.555 	1066.33 	2491.23 	3262.64
1.565 	974.185 	2499.54 	3198.79
1.575 	865.696 	2508.75 	3134.23
1.585 	762.013 	2519.27 	3071
1.595 	679.723 	2531.49 	3007.65
1.605 	628.838 	2545.73 	2939.58
1.615 	612.434 	2562.46 	2870.98
1.625 	634.91 	2584.86 	2850.63
1.635 	812.097 	2616.4 	2779.79
1.645 	962.93 	2651.81 	2514.63
1.655 	1013.74 	2674.47 	2292.35
1.665 	1025.02 	2689.37 	2171.89
1.675 	1029.34 	2699.88 	2069.44
1.685 	1065.02 	2712.87 	2041.24
1.695 	1121.4 	2731.21 	2037.75
1.705 	1182.78 	2752.92 	2022.46
1.715 	1240.91 	2774.96 	1974.16
1.725 	1287.61 	2794.94 	1905.44
1.735 	1321.78 	2812.03 	1834.06
1.745 	1356.29 	2825.92 	1774.76
1.755 	1380.05 	2838.3 	1724.41
1.765 	1379.15 	2845.84 	1653.51
1.775 	1340.1 	2850.8 	1622.18
1.785 	1214.83 	2858.08 	1597.66
1.795 	1071.17 	2866.88 	1569.67
1.805 	940.994 	2877.36 	1541.29
1.815 	842.027 	2889.76 	1511.37
1.825 	780.019 	2904.31 	1478.91
1.835 	756.363 	2921.22 	1442.6
1.845 	780.905 	2943.39 	1432.25
1.855 	976.933 	2973.7 	1395.04
1.865 	1130.16 	3005.17 	1270.4
1.875 	1179.79 	3026.31 	1182.2
1.885 	1190.71 	3043.02 	1143.68
1.895 	1192.44 	3059.83 	1126.34
1.905 	1219.54 	3078.88 	1094.58
1.915 	1258.22 	3096.69 	1053.47
1.925 	1285.2 	3112.98 	1023.47
1.935 	1298.03 	3125.53 	975.631
1.945 	1344.96 	3138.07 	956.575
1.955 	1426.12 	3155.84 	955.52
1.965 	1503.38 	3176.76 	951.485
1.975 	1557.43 	3196.89 	934.904
1.985 	1585.98 	3210.61 	885.592
1.995 	1610.38 	3212.76 	811.31
2.005 	1665.16 	3209.57 	780.486
2.015 	1727.4 	3214.11 	776.343
2.025 	1763.11 	3225.55 	776.308
2.035 	1771.14 	3240.6 	775.955
2.045 	1759.2 	3257.14 	774.333
2.055 	1581.25 	3273.88 	773.139
2.065 	1305.94 	3289.78 	770.834
2.075 	1064.21 	3305.1 	767.654
2.085 	885.442 	3320.63 	764.719
2.095 	806.055 	3338.11 	758.416
2.105 	802.718 	3360.07 	754.393
2.115 	915.26 	3387.94 	738.76
2.125 	1074.31 	3416.88 	668.577
2.135 	1125.25 	3424 	531.435
2.145 	1257.32 	3424.52 	517.559
2.155 	1396.49 	3435.5 	517.538
2.165 	1501.08 	3453.15 	517.716
2.175 	1617.13 	3474.47 	517.721
2.185 	1750.47 	3498.26 	517.421
2.195 	1876.92 	3523.65 	516.947
2.205 	1967.36 	3549.08 	514.23
2.215 	2003.81 	3570.9 	504.329
2.225 	1985.61 	3582.39 	476.449
2.235 	1925.72 	3581.26 	440.6
2.245 	1891.43 	3577.05 	415.931
2.255 	1851.2 	3579.35 	404.337
2.265 	1710.73 	3589.81 	402.854
2.275 	1527.1 	3604.98 	402.544
2.285 	1390.73 	3621.61 	402.396
2.295 	1321.03 	3639.01 	402.571
2.305 	1300.4 	3657.34 	401.804
2.315 	1302.71 	3676.7 	401.749
2.325 	1385.12 	3697.17 	400.578
2.335 	1588.6 	3720.08 	399.185
2.345 	1762.72 	3745.27 	397.451
2.355 	1900.16 	3771.44 	395.988
2.365 	2011.92 	3797.01 	393.873
2.375 	2095.47 	3819.03 	387.988
2.385 	2138.5 	3830.46 	366.041
2.395 	2160.99 	3822.96 	331.318
2.405 	2219.98 	3815.72 	326.571
2.415 	2243.99 	3816.98 	325.806
2.425 	2230.44 	3821.29 	324.197
2.435 	2069.99 	3827.08 	324.127
2.445 	1851.68 	3833.87 	323.775
2.455 	1656.4 	3841.21 	322.832
2.465 	1504.07 	3848.88 	321.353
2.475 	1405.22 	3856.86 	318.848
2.485 	1354.86 	3864.96 	315.777
2.495 	1342.72 	3873.46 	312.263
2.505 	1380.75 	3883.17 	310.391
2.515 	1595.64 	3893.67 	308.153
2.525 	1834.58 	3904.69 	306.095
2.535 	1997.49 	3912.96 	298.783
2.545 	2098.42 	3913.82 	291.696
2.555 	2176.72 	3913.69 	291.041
2.565 	2232.66 	3914.91 	290.981
2.575 	2270.64 	3917.19 	291.003
2.585 	2302.25 	3919.99 	291.108
2.595 	2336.85 	3923 	291.435
2.605 	2377.42 	3925.93 	291.518
2.615 	2423.3 	3928.56 	291.651
2.625 	2470.5 	3930.83 	291.71
2.635 	2514.16 	3932.8 	291.92
2.645 	2548.56 	3934.51 	291.995
2.655 	2571.51 	3936 	292.001
2.665 	2583.99 	3937.37 	292.146
2.675 	2588.45 	3938.62 	291.962
2.685 	2591.5 	3939.84 	292.633
2.695 	2600.14 	3940.95 	292.297
2.705 	2684.52 	3942.01 	292.365
2.715 	2907.44 	3942.96 	292.653
2.725 	3185.84 	3943.84 	292.334
2.735 	3516.01 	3944.74 	292.705
2.745 	3885.57 	3945.61 	292.398
2.755 	4278.65 	3946.51 	292.999
2.765 	4662.4 	3947.31 	292.491
2.775 	5014.49 	3948.11 	293.084
2.785 	5310.44 	3948.7 	292.77
2.795 	5544.53 	3949.12 	292.664
2.805 	5720.36 	3949.33 	293.337
2.815 	5839.57 	3949.15 	292.429
2.825 	5921.46 	3948.72 	293.22
2.835 	5965.61 	3947.79 	292.453
2.845 	5989.6 	3946.49 	293.109
2.855 	5994.86 	3944.52 	292.225
2.865 	5998.65 	3942.02 	292.973
2.875 	5995.52 	3938.63 	291.763
2.885 	5999.09 	3934.58 	292.666
2.895 	5995.43 	3929.48 	291.192
2.905 	5999.19 	3923.73 	292.038
2.915 	5996.7 	3916.98 	290.566
2.925 	5999.3 	3909.69 	290.995
2.935 	5998.28 	3901.58 	290.04
2.945 	5999.71 	3892.74 	289.868
2.955 	5998.67 	3881.99 	288.036
2.965 	5999.84 	3862.66 	284.163
2.975 	6000 	3799.95 	264.523
2.985 	5460.13 	3629.57 	228.126
2.995 	3335.27 	3376.28 	174.894
3.005 	1314.76 	2949.86 	69.5185
3.015 	547.864 	738.272 	3.13743
3.025 	300.051 	0.180341 	1.00099
3.035 	300 	6.72723e-06 	1
3.045 	300 	2.35254e-10 	1
3.055 	300 	4.36461e-13 	1
3.065 	300 	5.67195e-12 	1
3.075 	300 	5.23565e-12 	1
3.085 	300 	3.84022e-51 	1
3.095 	300 	7.63488e-12 	1
3.105 	300 	6.3261e-12 	1
3.115 	300 	5.23589e-17 	1
3.125 	300 	4.68999e-12 	1
3.135 	300 	5.34446e-12 	1
3.145 	300 	4.79941e-12 	1
3.155 	300 	5.23571e-12 	1
3.165 	300 	4.58125e-12 	1
3.175 	300 	4.7994e-12 	1
3.185 	300 	1.74525e-12 	1
3.195 	300 	4.25399e-12 	1
3.205 	300 	5.67201e-12 	1
3.215 	300 	5.45386e-12 	1
3.225 	300 	1.30897e-17 	1
3.235 	300 	3.38141e-12 	1
3.245 	300 	5.38133e-17 	1
3.255 	300 	3.05427e-17 	1
3.265 	300 	2.61788e-12 	1
3.275 	300 	5.29591e-25 	1
3.285 	300 	9.81713e-13 	1
3.295 	300 	5.34478e-12 	1
3.305 	300 	5.45386e-12 	1
3.315 	300 	5.67199e-12 	1
3.325 	300 	1.89074e-17 	1
3.335 	300 	4.36311e-12 	1
3.345 	300 	4.4722e-12 	1
3.355 	300 	3.27231e-12 	1
3.365 	300 	3.05387e-12 	1
3.375 	300 	3.81733e-12 	1
3.385 	300 	2.29062e-12 	1
3.395 	300 	3.05418e-12 	1
3.405 	300 	3.49047e-12 	1
3.415 	300 	2.72689e-12 	1
3.425 	300 	9.81681e-13 	1
3.435 	300 	2.07251e-12 	1
3.445 	300 	4.03582e-12 	1
3.455 	300 	1.89074e-17 	1
3.465 	300 	5.56291e-12 	1
3.475 	300 	1.19983e-12 	1
3.485 	300 	4.36324e-17 	1
3.495 	300 	1.74527e-12 	1
3.505 	300 	1.63619e-12 	1
3.515 	300 	1.96337e-12 	1
3.525 	300 	3.05427e-17 	1
3.535 	300 	4.03587e-12 	1
3.545 	300 	5.81766e-18 	1
3.555 	300 	1.30894e-12 	1
3.565 	300 	5.45387e-12 	1
3.575 	300 	4.36311e-12 	1
3.585 	300 	5.67199e-12 	1
3.595 	300 	3.27252e-13 	1
3.605 	300 	1.59986e-17 	1
3.615 	300 	8.61672e-12 	1
3.625 	300 	4.25361e-12 	1
3.635 	300 	1.69816e-26 	1
3.645 	300 	6.54486e-13 	1
3.655 	300 	5.34451e-12 	1
3.665 	300 	6.10802e-12 	1
3.675 	300 	5.23571e-12 	1
3.685 	300 	4.36304e-12 	1
3.695 	300 	5.01749e-12 	1
3.705 	300 	4.36326e-13 	1
3.715 	300 	4.25397e-12 	1
3.725 	300 	3.92676e-12 	1
3.735 	300 	8.7263e-13 	1
3.745 	300 	2.29051e-12 	1
3.755 	300 	5.56216e-12 	1
3.765 	300 	3.48998e-12 	1
3.775 	300 	2.29069e-12 	1
3.785 	300 	1.96347e-12 	1
3.795 	300 	5.45435e-13 	1
3.805 	300 	2.29059e-12 	1
3.815 	300 	4.58124e-12 	1
3.825 	300 	5.45385e-12 	1
3.835 	300 	3.27255e-13 	1
3.845 	300 	1.89074e-17 	1
3.855 	300 	1.89074e-17 	1
3.865 	300 	1.19989e-12 	1
3.875 	300 	4.58121e-12 	1
3.885 	300 	4.36305e-12 	1
3.895 	300 	3.05415e-12 	1
3.905 	300 	2.61749e-12 	1
3.915 	300 	7.63466e-12 	1
3.925 	300 	3.81752e-12 	1
3.935 	300 	1.74525e-12 	1
3.945 	300 	5.34479e-12 	1
3.955 	300 	4.47218e-12 	1
3.965 	300 	5.56294e-12 	1
3.975 	300 	7.56295e-17 	1
3.985 	300 	5.23565e-12 	1
3.995 	300 	3.81769e-12 	1
4.005 	300 	2.76339e-17 	1
4.015 	300 	5.67221e-17 	1
4.025 	300 	4.68988e-12 	1
4.035 	300 	1.96322e-12 	1
4.045 	300 	4.25402e-12 	1
4.055 	300 	3.49059e-17 	1
4.065 	300 	2.72694e-12 	1
4.075 	300 	3.27227e-12 	1
4.085 	300 	3.59952e-12 	1
4.095 	300 	4.36324e-18 	1
4.105 	300 	2.83375e-27 	1
4.115 	300 	3.27246e-13 	1
4.125 	300 	6.39942e-17 	1
4.135 	300 	4.36325e-18 	1
4.145 	300 	9.81733e-13 	1
4.155 	300 	2.18155e-12 	1