-4.995 	500 	4.40574e-12 	1.5e+07
-4.985 	500 	4.06684e-12 	1.5e+07
-4.975 	500 	6.77806e-13 	1.5e+07
-4.965 	500 	1.01671e-12 	1.5e+07
-4.955 	500 	3.05013e-12 	1.5e+07
-4.945 	500 	2.71122e-12 	1.5e+07
-4.935 	500 	3.56928e-25 	1.5e+07
-4.925 	500 	3.57084e-25 	1.5e+07
-4.915 	500 	2.71122e-12 	1.5e+07
-4.905 	500 	3.05013e-12 	1.5e+07
-4.895 	500 	1.01669e-11 	1.5e+07
-4.885 	500 	7.45569e-12 	1.5e+07
-4.875 	500 	3.38903e-13 	1.5e+07
-4.865 	500 	7.72944e-25 	1.5e+07
-4.855 	500 	1.73204e-73 	1.5e+07
-4.845 	500 	6.5438e-25 	1.5e+07
-4.835 	500 	1.01671e-12 	1.5e+07
-4.825 	500 	1.35561e-12 	1.5e+07
-4.815 	500 	4.29287e-24 	1.5e+07
-4.805 	500 	6.10011e-12 	1.5e+07
-4.795 	500 	4.74447e-12 	1.5e+07
-4.785 	500 	2.71122e-12 	1.5e+07
-4.775 	500 	3.05013e-12 	1.5e+07
-4.765 	500 	4.40574e-12 	1.5e+07
-4.755 	500 	6.77806e-13 	1.5e+07
-4.745 	500 	7.13857e-25 	1.5e+07
-4.735 	500 	2.27366e-72 	1.5e+07
-4.725 	500 	4.06684e-12 	1.5e+07
-4.715 	500 	2.50613e-34 	1.5e+07
-4.705 	500 	3.38901e-12 	1.5e+07
-4.695 	500 	7.73586e-25 	1.5e+07
-4.685 	500 	1.79611e-11 	1.5e+07
-4.675 	500 	1.62667e-11 	1.5e+07
-4.665 	500 	2.03342e-12 	1.5e+07
-4.655 	500 	1.69452e-12 	1.5e+07
-4.645 	500 	7.733e-25 	1.5e+07
-4.635 	500 	3.38903e-12 	1.5e+07
-4.625 	500 	4.40574e-12 	1.5e+07
-4.615 	500 	2.71122e-18 	1.5e+07
-4.605 	500 	3.52459e-17 	1.5e+07
-4.595 	500 	2.2783e-35 	1.5e+07
-4.585 	500 	4.40574e-12 	1.5e+07
-4.575 	500 	3.38903e-12 	1.5e+07
-4.565 	500 	2.37952e-25 	1.5e+07
-4.555 	500 	4.75641e-25 	1.5e+07
-4.545 	500 	9.15016e-12 	1.5e+07
-4.535 	500 	6.43898e-12 	1.5e+07
-4.525 	500 	2.16898e-17 	1.5e+07
-4.515 	500 	4.40574e-12 	1.5e+07
-4.505 	500 	1.01671e-12 	1.5e+07
-4.495 	500 	6.55648e-25 	1.5e+07
-4.485 	500 	1.26808e-112 	1.5e+07
-4.475 	500 	1.72055e-80 	1.5e+07
-4.465 	500 	7.13867e-25 	1.5e+07
-4.455 	500 	6.77806e-13 	1.5e+07
-4.445 	500 	1.01671e-12 	1.5e+07
-4.435 	500 	9.11326e-35 	1.5e+07
-4.425 	500 	2.71122e-12 	1.5e+07
-4.415 	500 	2.37232e-12 	1.5e+07
-4.405 	500 	4.1624e-25 	1.5e+07
-4.395 	500 	2.97445e-25 	1.5e+07
-4.385 	500 	3.05013e-12 	1.5e+07
-4.375 	500 	3.38903e-12 	1.5e+07
-4.365 	500 	6.77806e-13 	1.5e+07
-4.355 	500 	0 	1.5e+07
-4.345 	500 	0 	1.5e+07
-4.335 	500 	3.38903e-13 	1.5e+07
-4.325 	500 	6.77806e-13 	1.5e+07
-4.315 	500 	1.11836e-11 	1.5e+07
-4.305 	500 	1.05057e-11 	1.5e+07
-4.295 	500 	1.69452e-12 	1.5e+07
-4.285 	500 	2.37232e-12 	1.5e+07
-4.275 	500 	9.15012e-12 	1.5e+07
-4.265 	500 	5.42225e-12 	1.5e+07
-4.255 	500 	7.11687e-12 	1.5e+07
-4.245 	500 	6.43898e-12 	1.5e+07
-4.235 	500 	4.40574e-12 	1.5e+07
-4.225 	500 	3.38933e-13 	1.5e+07
-4.215 	500 	2.21278e-27 	1.5e+07
-4.205 	500 	3.38903e-13 	1.5e+07
-4.195 	500 	4.40574e-12 	1.5e+07
-4.185 	500 	0 	1.5e+07
-4.175 	500 	3.05013e-12 	1.5e+07
-4.165 	500 	1.69452e-12 	1.5e+07
-4.155 	500 	0 	1.5e+07
-4.145 	500 	2.37232e-12 	1.5e+07
-4.135 	500 	9.82797e-12 	1.5e+07
-4.125 	500 	1.05057e-11 	1.5e+07
-4.115 	500 	5.95115e-25 	1.5e+07
-4.105 	500 	1.18936e-25 	1.5e+07
-4.095 	500 	4.06684e-12 	1.5e+07
-4.085 	500 	4.40574e-12 	1.5e+07
-4.075 	500 	3.38903e-13 	1.5e+07
-4.065 	500 	0 	1.5e+07
-4.055 	500 	2.3798e-24 	1.5e+07
-4.045 	500 	5.76121e-12 	1.5e+07
-4.035 	500 	7.79461e-12 	1.5e+07
-4.025 	500 	7.73812e-25 	1.5e+07
-4.015 	500 	2.37232e-12 	1.5e+07
-4.005 	500 	2.71122e-12 	1.5e+07
-3.995 	500 	9.11326e-35 	1.5e+07
-3.985 	500 	3.38895e-12 	1.5e+07
-3.975 	500 	3.72784e-12 	1.5e+07
-3.965 	500 	3.38903e-13 	1.5e+07
-3.955 	500 	9.78271e-28 	1.5e+07
-3.945 	500 	4.40574e-12 	1.5e+07
-3.935 	500 	3.72793e-12 	1.5e+07
-3.925 	500 	7.79448e-12 	1.5e+07
-3.915 	500 	5.76117e-12 	1.5e+07
-3.905 	500 	1.69452e-12 	1.5e+07
-3.895 	500 	4.06684e-12 	1.5e+07
-3.885 	500 	2.37232e-12 	1.5e+07
-3.875 	500 	1.69452e-12 	1.5e+07
-3.865 	500 	1.35561e-12 	1.5e+07
-3.855 	500 	1.78396e-25 	1.5e+07
-3.845 	500 	3.72793e-12 	1.5e+07
-3.835 	500 	4.06684e-12 	1.5e+07
-3.825 	500 	6.97721e-24 	1.5e+07
-3.815 	500 	1.01678e-12 	1.5e+07
-3.805 	500 	5.08348e-12 	1.5e+07
-3.795 	500 	1.01671e-12 	1.5e+07
-3.785 	500 	1.35561e-12 	1.5e+07
-3.775 	500 	8.43385e-113 	1.5e+07
-3.765 	500 	4.16278e-25 	1.5e+07
-3.755 	500 	2.37232e-12 	1.5e+07
-3.745 	500 	2.71122e-12 	1.5e+07
-3.735 	500 	3.05014e-12 	1.5e+07
-3.725 	500 	4.40571e-12 	1.5e+07
-3.715 	500 	6.77806e-13 	1.5e+07
-3.705 	500 	1.25081e-24 	1.5e+07
-3.695 	500 	1.32169e-11 	1.5e+07
-3.685 	500 	1.22002e-11 	1.5e+07
-3.675 	500 	1.07331e-24 	1.5e+07
-3.665 	500 	0 	1.5e+07
-3.655 	500 	1.35561e-12 	1.5e+07
-3.645 	500 	7.11685e-12 	1.5e+07
-3.635 	500 	9.15025e-12 	1.5e+07
-3.625 	500 	4.4057e-12 	1.5e+07
-3.615 	500 	7.73882e-25 	1.5e+07
-3.605 	500 	3.05013e-12 	1.5e+07
-3.595 	500 	3.38903e-12 	1.5e+07
-3.585 	500 	1.92607e-72 	1.5e+07
-3.575 	500 	5.94978e-26 	1.5e+07
-3.565 	500 	4.40574e-12 	1.5e+07
-3.555 	500 	4.0668e-12 	1.5e+07
-3.545 	500 	1.3558e-12 	1.5e+07
-3.535 	500 	5.42241e-12 	1.5e+07
-3.525 	500 	5.253e-12 	1.5e+07
-3.515 	500 	1.69452e-12 	1.5e+07
-3.505 	500 	2.03342e-12 	1.5e+07
-3.495 	500 	2.03342e-12 	1.5e+07
-3.485 	500 	1.69452e-12 	1.5e+07
-3.475 	500 	1.3556e-12 	1.5e+07
-3.465 	500 	2.03336e-12 	1.5e+07
-3.455 	500 	6.94719e-12 	1.5e+07
-3.445 	500 	6.60853e-12 	1.5e+07
-3.435 	500 	2.20276e-12 	1.5e+07
-3.425 	500 	4.40573e-12 	1.5e+07
-3.415 	500 	3.72793e-12 	1.5e+07
-3.405 	500 	1.78645e-25 	1.5e+07
-3.395 	500 	3.05013e-12 	1.5e+07
-3.385 	500 	2.71122e-12 	1.5e+07
-3.375 	500 	6.439e-12 	1.5e+07
-3.365 	500 	9.15029e-12 	1.5e+07
-3.355 	500 	2.71122e-12 	1.5e+07
-3.345 	500 	1.35561e-12 	1.5e+07
-3.335 	500 	1.01671e-12 	1.5e+07
-3.325 	500 	6.54935e-25 	1.5e+07
-3.315 	500 	5.94642e-26 	1.5e+07
-3.305 	500 	4.40574e-12 	1.5e+07
-3.295 	500 	2.54186e-12 	1.5e+07
-3.285 	500 	4.40572e-12 	1.5e+07
-3.275 	500 	4.40567e-12 	1.5e+07
-3.265 	500 	2.40125e-25 	1.5e+07
-3.255 	500 	4.40574e-12 	1.5e+07
-3.245 	500 	2.37232e-12 	1.5e+07
-3.235 	500 	4.17042e-25 	1.5e+07
-3.225 	500 	1.6945e-12 	1.5e+07
-3.215 	500 	1.3556e-12 	1.5e+07
-3.205 	500 	3.389e-12 	1.5e+07
-3.195 	500 	3.7279e-12 	1.5e+07
-3.185 	500 	3.38903e-13 	1.5e+07
-3.175 	500 	6.6084e-12 	1.5e+07
-3.165 	500 	4.2362e-12 	1.5e+07
-3.155 	500 	3.72784e-12 	1.5e+07
-3.145 	500 	6.77798e-12 	1.5e+07
-3.135 	500 	3.05013e-12 	1.5e+07
-3.125 	500 	1.69452e-12 	1.5e+07
-3.115 	500 	6.77808e-12 	1.5e+07
-3.105 	500 	1.01684e-12 	1.5e+07
-3.095 	500 	2.54169e-12 	1.5e+07
-3.085 	500 	2.03335e-12 	1.5e+07
-3.075 	500 	3.72796e-12 	1.5e+07
-3.065 	500 	3.72793e-12 	1.5e+07
-3.055 	500 	1.76562e-73 	1.5e+07
-3.045 	500 	7.74597e-25 	1.5e+07
-3.035 	500 	3.38903e-13 	1.5e+07
-3.025 	500 	8.8114e-12 	1.5e+07
-3.015 	500 	4.40569e-12 	1.5e+07
-3.005 	500 	6.10018e-12 	1.5e+07
-2.995 	500 	1.45812e-39 	1.5e+07
-2.985 	500 	5.42235e-12 	1.5e+07
-2.975 	500 	1.1861e-12 	1.5e+07
-2.965 	500 	4.40567e-12 	1.5e+07
-2.955 	500 	6.10009e-12 	1.5e+07
-2.945 	500 	3.38895e-12 	1.5e+07
-2.935 	500 	2.96181e-34 	1.5e+07
-2.925 	500 	5.94963e-26 	1.5e+07
-2.915 	500 	4.4057e-12 	1.5e+07
-2.905 	500 	3.25347e-17 	1.5e+07
-2.895 	500 	2.88074e-12 	1.5e+07
-2.885 	500 	8.81115e-12 	1.5e+07
-2.875 	500 	9.15009e-12 	1.5e+07
-2.865 	500 	6.43891e-12 	1.5e+07
-2.855 	500 	5.42235e-12 	1.5e+07
-2.845 	500 	4.16641e-25 	1.5e+07
-2.835 	500 	1.69447e-12 	1.5e+07
-2.825 	500 	2.71125e-12 	1.5e+07
-2.815 	500 	8.98077e-12 	1.5e+07
-2.805 	500 	8.13338e-12 	1.5e+07
-2.795 	500 	7.14748e-25 	1.5e+07
-2.785 	500 	6.596e-38 	1.5e+07
-2.775 	500 	4.06684e-12 	1.5e+07
-2.765 	500 	3.72793e-12 	1.5e+07
-2.755 	500 	4.40574e-12 	1.5e+07
-2.745 	500 	5.35096e-25 	1.5e+07
-2.735 	500 	1.69452e-12 	1.5e+07
-2.725 	500 	4.40574e-12 	1.5e+07
-2.715 	500 	4.23629e-12 	1.5e+07
-2.705 	500 	2.97743e-25 	1.5e+07
-2.695 	500 	3.05013e-12 	1.5e+07
-2.685 	500 	3.38903e-12 	1.5e+07
-2.675 	500 	6.77806e-13 	1.5e+07
-2.665 	500 	2.54177e-12 	1.5e+07
-2.655 	500 	4.40574e-12 	1.5e+07
-2.645 	500 	5.95139e-26 	1.5e+07
-2.635 	500 	0 	1.5e+07
-2.625 	500 	2.05047e-34 	1.5e+07
-2.615 	500 	1.35575e-12 	1.5e+07
-2.605 	500 	7.79457e-12 	1.5e+07
-2.595 	500 	4.06684e-12 	1.5e+07
-2.585 	500 	8.81132e-12 	1.5e+07
-2.575 	500 	3.89722e-12 	1.5e+07
-2.565 	500 	3.05013e-12 	1.5e+07
-2.555 	500 	1.01671e-12 	1.5e+07
-2.545 	500 	6.77806e-13 	1.5e+07
-2.535 	500 	3.38903e-13 	1.5e+07
-2.525 	500 	6.6084e-12 	1.5e+07
-2.515 	500 	4.2362e-12 	1.5e+07
-2.505 	500 	6.77806e-13 	1.5e+07
-2.495 	500 	1.01671e-12 	1.5e+07
-2.485 	500 	4.10092e-34 	1.5e+07
-2.475 	500 	0 	1.5e+07
-2.465 	500 	1.27586e-39 	1.5e+07
-2.455 	500 	2.03342e-12 	1.5e+07
-2.445 	500 	3.38903e-12 	1.5e+07
-2.435 	500 	5.25281e-12 	1.5e+07
-2.425 	500 	7.7945e-12 	1.5e+07
-2.415 	500 	6.77806e-13 	1.5e+07
-2.405 	500 	3.38903e-13 	1.5e+07
-2.395 	500 	7.74607e-25 	1.5e+07
-2.385 	500 	2.27832e-35 	1.5e+07
-2.375 	500 	4.55663e-35 	1.5e+07
-2.365 	500 	0 	1.5e+07
-2.355 	500 	1.63069e-72 	1.5e+07
-2.345 	500 	2.71122e-12 	1.5e+07
-2.335 	500 	2.37232e-12 	1.5e+07
-2.325 	500 	2.03342e-12 	1.5e+07
-2.315 	500 	1.69452e-12 	1.5e+07
-2.305 	500 	5.36266e-25 	1.5e+07
-2.295 	500 	1.78472e-25 	1.5e+07
-2.285 	500 	3.72793e-12 	1.5e+07
-2.275 	500 	4.06684e-12 	1.5e+07
-2.265 	500 	4.40574e-12 	1.5e+07
-2.255 	500 	4.57518e-12 	1.5e+07
-2.245 	500 	1.01668e-12 	1.5e+07
-2.235 	500 	1.01671e-12 	1.5e+07
-2.225 	500 	1.35561e-12 	1.5e+07
-2.215 	500 	5.2401e-34 	1.5e+07
-2.205 	500 	0 	1.5e+07
-2.195 	500 	1.59482e-34 	1.5e+07
-2.185 	500 	2.71122e-12 	1.5e+07
-2.175 	500 	6.10026e-12 	1.5e+07
-2.165 	500 	3.38903e-12 	1.5e+07
-2.155 	500 	1.19094e-25 	1.5e+07
-2.145 	500 	4.06684e-12 	1.5e+07
-2.135 	500 	-3.6684e-28 	1.5e+07
-2.125 	500 	4.57518e-12 	1.5e+07
-2.115 	500 	9.15005e-12 	1.5e+07
-2.105 	500 	5.59177e-12 	1.5e+07
-2.095 	500 	3.05013e-12 	1.5e+07
-2.085 	500 	7.62529e-12 	1.5e+07
-2.075 	500 	2.37232e-12 	1.5e+07
-2.065 	500 	4.16597e-25 	1.5e+07
-2.055 	500 	1.69452e-12 	1.5e+07
-2.045 	500 	1.35561e-12 	1.5e+07
-2.035 	500 	5.94664e-25 	1.5e+07
-2.025 	500 	6.77806e-13 	1.5e+07
-2.015 	500 	3.38903e-13 	1.5e+07
-2.005 	500 	4.4057e-12 	1.5e+07
-1.995 	500 	2.71122e-18 	1.5e+07
-1.985 	500 	2.23665e-11 	1.5e+07
-1.975 	500 	1.79609e-11 	1.5e+07
-1.965 	500 	6.10021e-12 	1.5e+07
-1.955 	500 	9.82801e-12 	1.5e+07
-1.945 	500 	3.52459e-17 	1.5e+07
-1.935 	500 	3.52459e-17 	1.5e+07
-1.925 	500 	1.83004e-11 	1.5e+07
-1.915 	500 	6.1003e-12 	1.5e+07
-1.905 	500 	8.47214e-12 	1.5e+07
-1.895 	500 	4.40567e-12 	1.5e+07
-1.885 	500 	4.23622e-12 	1.5e+07
-1.875 	500 	2.20276e-12 	1.5e+07
-1.865 	500 	1.78549e-23 	1.5e+07
-1.855 	500 	1.45723e-11 	1.5e+07
-1.845 	500 	4.40553e-12 	1.5e+07
-1.835 	500 	1.11833e-11 	1.5e+07
-1.825 	500 	1.11834e-11 	1.5e+07
-1.815 	500 	1.21999e-11 	1.5e+07
-1.805 	500 	2.03339e-12 	1.5e+07
-1.795 	500 	1.18612e-11 	1.5e+07
-1.785 	500 	1.28778e-11 	1.5e+07
-1.775 	500 	6.77795e-12 	1.5e+07
-1.765 	500 	5.42245e-18 	1.5e+07
-1.755 	500 	2.06721e-11 	1.5e+07
-1.745 	500 	2.64331e-11 	1.5e+07
-1.735 	500 	8.13351e-12 	1.5e+07
-1.725 	500 	9.48946e-12 	1.5e+07
-1.715 	500 	1.62668e-11 	1.5e+07
-1.705 	500 	6.77782e-12 	1.5e+07
-1.695 	500 	6.09995e-12 	1.5e+07
-1.685 	500 	1.59278e-11 	1.5e+07
-1.675 	500 	4.40553e-12 	1.5e+07
-1.665 	500 	1.10138e-11 	1.5e+07
-1.655 	500 	4.23633e-12 	1.5e+07
-1.645 	500 	3.05008e-12 	1.5e+07
-1.635 	500 	1.35558e-12 	1.5e+07
-1.625 	500 	4.0668e-12 	1.5e+07
-1.615 	500 	3.52459e-17 	1.5e+07
-1.605 	500 	3.52459e-17 	1.5e+07
-1.595 	500 	1.35566e-12 	1.5e+07
-1.585 	500 	1.01669e-12 	1.5e+07
-1.575 	500 	1.35559e-12 	1.5e+07
-1.565 	500 	8.81119e-12 	1.5e+07
-1.555 	500 	1.13871e-16 	1.5e+07
-1.545 	500 	4.06677e-12 	1.5e+07
-1.535 	500 	3.52459e-17 	1.5e+07
-1.525 	500 	4.10092e-34 	1.5e+07
-1.515 	500 	0 	1.5e+07
-1.505 	500 	9.15024e-12 	1.5e+07
-1.495 	500 	7.11688e-12 	1.5e+07
-1.485 	500 	5.64208e-25 	1.5e+07
-1.475 	500 	4.06678e-12 	1.5e+07
-1.465 	500 	9.31962e-12 	1.5e+07
-1.455 	500 	7.28633e-12 	1.5e+07
-1.445 	500 	2.7112e-12 	1.5e+07
-1.435 	500 	3.38901e-12 	1.5e+07
-1.425 	500 	4.06677e-12 	1.5e+07
-1.415 	500 	1.01666e-12 	1.5e+07
-1.405 	500 	2.20284e-12 	1.5e+07
-1.395 	500 	7.28624e-12 	1.5e+07
-1.385 	500 	1.89778e-11 	1.5e+07
-1.375 	500 	1.11829e-11 	1.5e+07
-1.365 	500 	9.828e-12 	1.5e+07
-1.355 	500 	1.40984e-16 	1.5e+07
-1.345 	500 	4.06665e-12 	1.5e+07
-1.335 	500 	1.82997e-11 	1.5e+07
-1.325 	500 	2.13498e-11 	1.5e+07
-1.315 	500 	1.79611e-11 	1.5e+07
-1.305 	500 	2.10112e-11 	1.5e+07
-1.295 	500 	5.76134e-12 	1.5e+07
-1.285 	500 	1.18611e-11 	1.5e+07
-1.275 	500 	1.8639e-11 	1.5e+07
-1.265 	500 	5.76124e-12 	1.5e+07
-1.255 	500 	5.08332e-12 	1.5e+07
-1.245 	500 	2.71121e-12 	1.5e+07
-1.235 	500 	4.06677e-12 	1.5e+07
-1.225 	500 	3.00818e-30 	1.5e+07
-1.215 	500 	2.71122e-18 	1.5e+07
-1.205 	500 	3.21965e-12 	1.5e+07
-1.195 	500 	6.60844e-12 	1.5e+07
-1.185 	500 	1.28779e-11 	1.5e+07
-1.175 	500 	5.42236e-12 	1.5e+07
-1.165 	500 	3.52459e-17 	1.5e+07
-1.155 	500 	1.5948e-34 	1.5e+07
-1.145 	500 	3.38903e-12 	1.5e+07
-1.135 	500 	1.38944e-11 	1.5e+07
-1.125 	500 	9.48898e-12 	1.5e+07
-1.115 	500 	5.08349e-12 	1.5e+07
-1.105 	500 	4.74451e-12 	1.5e+07
-1.095 	500 	8.81137e-12 	1.5e+07
-1.085 	500 	8.13354e-12 	1.5e+07
-1.075 	500 	3.52459e-17 	1.5e+07
-1.065 	500 	2.03352e-12 	1.5e+07
-1.055 	500 	2.71119e-12 	1.5e+07
-1.045 	500 	2.71118e-12 	1.5e+07
-1.035 	500 	8.1332e-12 	1.5e+07
-1.025 	500 	1.79612e-11 	1.5e+07
-1.015 	500 	1.69449e-12 	1.5e+07
-1.005 	500 	1.11836e-11 	1.5e+07
-0.995 	500 	7.45572e-12 	1.5e+07
-0.985 	500 	8.13357e-12 	1.5e+07
-0.975 	500 	4.7446e-12 	1.5e+07
-0.965 	500 	4.40567e-12 	1.5e+07
-0.955 	500 	3.38898e-13 	1.5e+07
-0.945 	500 	3.72785e-12 	1.5e+07
-0.935 	500 	1.01671e-12 	1.5e+07
-0.925 	500 	4.40563e-12 	1.5e+07
-0.915 	500 	3.38901e-12 	1.5e+07
-0.905 	500 	4.06677e-12 	1.5e+07
-0.895 	500 	2.03337e-12 	1.5e+07
-0.885 	500 	2.71116e-12 	1.5e+07
-0.875 	500 	1.08449e-17 	1.5e+07
-0.865 	500 	1.01672e-12 	1.5e+07
-0.855 	500 	3.72791e-12 	1.5e+07
-0.845 	500 	2.71122e-18 	1.5e+07
-0.835 	500 	3.52459e-17 	1.5e+07
-0.825 	500 	3.38933e-13 	1.5e+07
-0.815 	500 	6.77795e-13 	1.5e+07
-0.805 	500 	3.38892e-12 	1.5e+07
-0.795 	500 	3.05006e-12 	1.5e+07
-0.785 	500 	2.16898e-17 	1.5e+07
-0.775 	500 	1.62673e-17 	1.5e+07
-0.765 	500 	8.47237e-12 	1.5e+07
-0.755 	500 	1.2878e-11 	1.5e+07
-0.745 	500 	9.82774e-12 	1.5e+07
-0.735 	500 	8.81137e-12 	1.5e+07
-0.725 	500 	5.0835e-12 	1.5e+07
-0.715 	500 	3.52459e-17 	1.5e+07
-0.705 	500 	7.04918e-17 	1.5e+07
-0.695 	500 	8.13356e-12 	1.5e+07
-0.685 	500 	3.52459e-17 	1.5e+07
-0.675 	500 	1.01675e-12 	1.5e+07
-0.665 	500 	4.40568e-12 	1.5e+07
-0.655 	500 	9.48877e-12 	1.5e+07
-0.645 	500 	1.45722e-11 	1.5e+07
-0.635 	500 	4.40567e-12 	1.5e+07
-0.625 	500 	1.65358e-12 	1.5e+07
-0.615 	500 	8.42422e-11 	1.5e+07
-0.605 	500 	1.32955e-09 	1.5e+07
-0.595 	500 	9.11559e-09 	1.5e+07
-0.585 	500 	5.19486e-08 	1.5e+07
-0.575 	500 	2.73554e-07 	1.5e+07
-0.565 	500 	1.44378e-06 	1.5e+07
-0.555 	500 	7.2062e-06 	1.5e+07
-0.545 	500 	3.39688e-05 	1.5e+07
-0.535 	500 	0.000150921 	1.5e+07
-0.525 	500 	0.000630526 	1.5e+07
-0.515 	499.999 	0.0024705 	1.49998e+07
-0.505 	499.998 	0.00904984 	1.49996e+07
-0.495 	499.992 	0.0308649 	1.49984e+07
-0.485 	499.974 	0.0972258 	1.49948e+07
-0.475 	499.925 	0.277173 	1.49852e+07
-0.465 	499.807 	0.708943 	1.49622e+07
-0.455 	499.557 	1.6251 	1.49135e+07
-0.445 	499.094 	3.32418 	1.48233e+07
-0.435 	498.341 	6.08515 	1.46778e+07
-0.425 	497.289 	9.95197 	1.44765e+07
-0.415 	495.982 	14.7715 	1.42295e+07
-0.405 	494.491 	20.2848 	1.39522e+07
-0.395 	492.881 	26.2526 	1.36579e+07
-0.385 	491.198 	32.5087 	1.33558e+07
-0.375 	489.468 	38.9526 	1.30513e+07
-0.365 	487.708 	45.5254 	1.27474e+07
-0.355 	485.927 	52.1915 	1.24459e+07
-0.345 	484.132 	58.9275 	1.2148e+07
-0.335 	482.325 	65.7176 	1.18545e+07
-0.325 	480.51 	72.5506 	1.15657e+07
-0.315 	478.691 	79.418 	1.1282e+07
-0.305 	476.868 	86.3143 	1.10038e+07
-0.295 	475.042 	93.234 	1.0731e+07
-0.285 	473.215 	100.173 	1.04637e+07
-0.275 	471.388 	107.129 	1.0202e+07
-0.265 	469.56 	114.1 	9.94579e+06
-0.255 	467.733 	121.082 	9.6951e+06
-0.245 	465.907 	128.076 	9.44987e+06
-0.235 	464.082 	135.078 	9.21007e+06
-0.225 	462.262 	142.09 	8.97565e+06
-0.215 	460.46 	149.11 	8.74662e+06
-0.205 	458.703 	156.135 	8.52292e+06
-0.195 	456.949 	163.157 	8.30406e+06
-0.185 	455.008 	170.188 	8.08962e+06
-0.175 	453.062 	177.244 	7.88064e+06
-0.165 	451.447 	184.288 	7.67706e+06
-0.155 	449.552 	191.33 	7.47763e+06
-0.145 	447.742 	198.392 	7.28318e+06
-0.135 	446.005 	205.44 	7.0932e+06
-0.125 	444.125 	212.507 	6.90772e+06
-0.115 	442.415 	219.563 	6.72665e+06
-0.105 	440.569 	226.634 	6.5499e+06
-0.095 	438.782 	233.698 	6.37732e+06
-0.085 	437.091 	240.772 	6.20895e+06
-0.075 	435.116 	247.843 	6.04454e+06
-0.065 	433.606 	254.919 	5.88415e+06
-0.055 	431.612 	261.997 	5.72764e+06
-0.045 	429.88 	269.077 	5.57496e+06
-0.035 	428.308 	276.159 	5.42598e+06
-0.025 	426.279 	283.241 	5.28072e+06
-0.015 	424.612 	290.331 	5.13891e+06
-0.005 	423.05 	297.417 	5.00057e+06
0.005 	421.063 	304.502 	4.86574e+06
0.015 	419.265 	311.6 	4.73416e+06
0.025 	417.813 	318.697 	4.60572e+06
0.035 	416.003 	325.782 	4.48059e+06
0.045 	413.993 	332.88 	4.35865e+06
0.055 	412.394 	339.991 	4.23955e+06
0.065 	410.939 	347.092 	4.12339e+06
0.075 	409.112 	354.18 	4.01029e+06
0.085 	407.088 	361.285 	3.90016e+06
0.095 	405.419 	368.407 	3.79263e+06
0.105 	404.036 	375.524 	3.6877e+06
0.115 	402.432 	382.619 	3.5855e+06
0.125 	400.407 	389.715 	3.4861e+06
0.135 	398.5 	396.844 	3.38915e+06
0.145 	396.979 	403.978 	3.29442e+06
0.155 	395.543 	411.101 	3.20219e+06
0.165 	394.025 	418.213 	3.11232e+06
0.175 	392.177 	425.311 	3.02485e+06
0.185 	390.109 	432.431 	2.93977e+06
0.195 	388.338 	439.585 	2.85669e+06
0.205 	386.947 	446.741 	2.77558e+06
0.215 	385.641 	453.877 	2.69664e+06
0.225 	384.145 	460.992 	2.61983e+06
0.235 	382.296 	468.097 	2.54514e+06
0.245 	380.257 	475.229 	2.47253e+06
0.255 	378.458 	482.396 	2.4016e+06
0.265 	376.887 	489.556 	2.33232e+06
0.275 	375.299 	496.711 	2.26508e+06
0.285 	373.957 	503.901 	2.19963e+06
0.295 	372.923 	511.075 	2.13552e+06
0.305 	371.459 	518.163 	2.07322e+06
0.315 	369.216 	525.246 	2.01318e+06
0.325 	366.967 	532.431 	1.95477e+06
0.335 	365.402 	539.675 	1.89728e+06
0.345 	364.074 	546.856 	1.84109e+06
0.355 	362.393 	553.989 	1.78685e+06
0.365 	360.655 	561.184 	1.73437e+06
0.375 	359.482 	568.456 	1.683e+06
0.385 	358.751 	575.693 	1.63255e+06
0.395 	357.679 	582.813 	1.5836e+06
0.405 	355.812 	589.882 	1.53651e+06
0.415 	353.471 	597.017 	1.49098e+06
0.425 	351.355 	604.256 	1.44647e+06
0.435 	349.744 	611.533 	1.40272e+06
0.445 	348.304 	618.758 	1.35997e+06
0.455 	346.614 	625.925 	1.31861e+06
0.465 	344.657 	633.106 	1.27867e+06
0.475 	342.872 	640.382 	1.23994e+06
0.485 	341.741 	647.755 	1.20207e+06
0.495 	341.333 	655.151 	1.16497e+06
0.505 	341.195 	662.457 	1.1286e+06
0.515 	340.692 	669.582 	1.09347e+06
0.525 	339.204 	676.634 	1.05991e+06
0.535 	336.961 	683.725 	1.02757e+06
0.545 	334.533 	690.932 	996150
0.555 	332.445 	698.252 	965317
0.565 	330.799 	705.602 	934978
0.575 	329.27 	712.889 	905296
0.585 	327.428 	720.084 	876554
0.595 	325.102 	727.252 	848900
0.605 	322.56 	734.5 	822238
0.615 	320.396 	741.9 	796329
0.625 	319.067 	749.444 	770857
0.635 	318.671 	757.047 	745931
0.645 	318.81 	764.657 	721512
0.655 	319.066 	772.041 	697363
0.665 	318.695 	778.998 	674164
0.675 	316.921 	786.054 	653285
0.685 	314.924 	793.415 	632874
0.695 	313.921 	801.009 	612710
0.705 	314.188 	809.096 	593608
0.715 	315.859 	816.907 	572443
0.725 	317.031 	824.23 	552775
0.735 	316.375 	830.39 	532985
0.745 	311.713 	836.901 	518273
0.755 	306.875 	844.242 	502801
0.765 	304.357 	851.976 	486241
0.775 	302.642 	859.638 	469773
0.785 	301.209 	867.272 	454224
0.795 	300.525 	874.974 	439036
0.805 	300.526 	882.695 	424111
0.815 	300.513 	889.912 	408011
0.825 	298.732 	896.125 	393192
0.835 	291.22 	902.412 	381576
0.845 	281.953 	909.436 	370465
0.855 	277.694 	917.609 	359511
0.865 	279.249 	928.254 	349176
0.875 	284.233 	938.485 	332878
0.885 	287.678 	946.676 	316388
0.895 	290.055 	953.302 	303616
0.905 	289.318 	957.963 	290351
0.915 	280.891 	962.757 	283262
0.925 	267.462 	969.408 	276039
0.935 	262.091 	978.163 	269019
0.945 	264.867 	990.127 	261866
0.955 	271.354 	1001.88 	247597
0.965 	278.711 	1011.87 	235935
0.975 	286.616 	1021.35 	226070
0.985 	291.694 	1028.8 	214570
0.995 	294.543 	1034.33 	205803
1.005 	293.19 	1037.26 	196545
1.015 	278.909 	1040.82 	193073
1.025 	257.7 	1046.91 	189052
1.035 	249.392 	1055.54 	184630
1.045 	251.149 	1067.19 	178785
1.055 	255.171 	1078.19 	168027
1.065 	259.498 	1088.29 	161147
1.075 	263.1 	1098.15 	153814
1.085 	269.34 	1107.71 	148221
1.095 	276.246 	1117.9 	142513
1.105 	284.249 	1127.01 	135849
1.115 	296.321 	1136.19 	131222
1.125 	305.674 	1144.89 	125502
1.135 	311.675 	1151.46 	119836
1.145 	313.995 	1156.11 	114800
1.155 	311.392 	1158.12 	110059
1.165 	291.091 	1160.94 	108351
1.175 	259.408 	1166.06 	106313
1.185 	238.126 	1173.24 	103945
1.195 	232.021 	1183.1 	101842
1.205 	242.085 	1197.24 	99968.7
1.215 	265.506 	1212.9 	93350.3
1.225 	273.555 	1223.24 	84883.5
1.235 	281.173 	1231.66 	81945.2
1.245 	287.562 	1241.12 	79694.7
1.255 	291.793 	1249.15 	75997.6
1.265 	303.343 	1258.86 	74884.6
1.275 	311.642 	1269.3 	71942.8
1.285 	321.96 	1277.88 	68785.8
1.295 	337.583 	1286.87 	66761.4
1.305 	350.081 	1295.76 	64298.2
1.315 	358.231 	1302.87 	61664.8
1.325 	362.786 	1308.32 	59482.7
1.335 	361.972 	1311.2 	56998.6
1.345 	348.796 	1313.27 	55872.1
1.355 	311.039 	1317.35 	55049.9
1.365 	275.423 	1323.2 	54086.8
1.375 	253.727 	1330.85 	52980.6
1.385 	247.718 	1340.79 	51880.2
1.395 	256.939 	1354.99 	51279.7
1.405 	300.535 	1373.02 	48943.6
1.415 	317.015 	1386 	43775.3
1.425 	320.627 	1394.08 	41910.2
1.435 	321.974 	1401.14 	40008.6
1.445 	329.441 	1408.58 	38807.1
1.455 	344.783 	1418.92 	38631.5
1.465 	354.786 	1430.31 	38003.7
1.475 	357.094 	1439.6 	36224.4
1.485 	359.963 	1446.87 	34581.1
1.495 	367.019 	1454.01 	33326.7
1.505 	376.404 	1461.69 	32289.9
1.515 	382.788 	1468.6 	30966.1
1.525 	390.368 	1472.14 	29224
1.535 	411.891 	1478.22 	29153.1
1.545 	429.988 	1487.51 	29152.5
1.555 	446.359 	1498.37 	29146.6
1.565 	459.622 	1509.73 	29099.9
1.575 	464.965 	1520.37 	28873.8
1.585 	458.47 	1528.14 	28168.8
1.595 	415.768 	1532.62 	27228.9
1.605 	364.972 	1535.38 	26173.4
1.615 	323.217 	1539.13 	25307.2
1.625 	295.222 	1545.17 	24590.9
1.635 	281.633 	1553.45 	23868.7
1.645 	281.18 	1564.92 	23610.1
1.655 	318.776 	1581.19 	23283
1.665 	382.765 	1600.94 	21995.8
1.675 	403.246 	1614.37 	20049.8
1.685 	408.366 	1622.51 	19168.6
1.695 	414.787 	1629.62 	18613
1.705 	425.092 	1637.69 	18319.8
1.715 	437.653 	1647.35 	18071.5
1.725 	448.801 	1657.26 	17560.6
1.735 	453.506 	1664.05 	16599.5
1.745 	456.622 	1665.62 	15450
1.755 	477.67 	1668.38 	15256
1.765 	502.638 	1675.55 	15257.1
1.775 	523.875 	1685.06 	15261.7
1.785 	537.129 	1695.49 	15260.4
1.795 	541.19 	1706.04 	15244.6
1.805 	538.747 	1716.12 	15187.8
1.815 	503.474 	1725.16 	15062.3
1.825 	445.91 	1732.17 	14696.7
1.835 	399.044 	1737.71 	14229.7
1.845 	367.086 	1743.58 	13770.6
1.855 	350.507 	1750.82 	13321.1
1.865 	349.834 	1761.07 	13134.4
1.875 	388.364 	1776.2 	12904.7
1.885 	448.407 	1793.41 	12070.8
1.895 	468.403 	1804.54 	11209.3
1.905 	474.472 	1812.74 	10937
1.915 	475.846 	1820.79 	10772.2
1.925 	481.431 	1829.75 	10559.5
1.935 	502.249 	1840.34 	10404.2
1.945 	513.15 	1850.02 	10017
1.955 	517.134 	1856.44 	9619.35
1.965 	529.069 	1863.46 	9539.95
1.975 	547.155 	1873.11 	9504.43
1.985 	567.028 	1884.26 	9396.09
1.995 	581.523 	1894.43 	9107.82
2.005 	587.26 	1901.12 	8730.95
2.015 	587.545 	1901.81 	8135.52
2.025 	597.637 	1900.86 	7877.6
2.035 	614.315 	1904.9 	7869
2.045 	620.051 	1912.45 	7869.3
2.055 	619.482 	1921.86 	7867.44
2.065 	593.661 	1932.21 	7864.14
2.075 	531.199 	1942.62 	7859.29
2.085 	472.36 	1952.81 	7843.97
2.095 	421.173 	1962.85 	7792.34
2.105 	385.664 	1973.01 	7703.42
2.115 	372.77 	1984.06 	7577.94
2.125 	386.037 	1998.29 	7510.13
2.135 	476.746 	2016.93 	7244.31
2.145 	523.387 	2031.46 	6399.77
2.155 	529.219 	2036.82 	6047.1
2.165 	528.462 	2041.75 	5909.75
2.175 	529.525 	2049.32 	5876.77
2.185 	555.05 	2060.07 	5819
2.195 	584.188 	2071.2 	5631.86
2.205 	593.14 	2080.27 	5484.21
2.215 	593.054 	2088.64 	5391.44
2.225 	592.842 	2097.91 	5343.39
2.235 	605.362 	2108.55 	5255.79
2.245 	615.794 	2118.1 	5112.72
2.255 	621.027 	2127.09 	5012.73
2.265 	632.987 	2136.12 	4918.86
2.275 	648.249 	2145.11 	4807.31
2.285 	666.365 	2154.26 	4778.4
2.295 	684.44 	2164.68 	4726.36
2.305 	699.53 	2175.04 	4660.38
2.315 	711.936 	2184.89 	4579.57
2.325 	721.786 	2193.36 	4458.76
2.335 	728.569 	2199.06 	4287.16
2.345 	734.159 	2199.58 	4005.53
2.355 	759.338 	2201.54 	3951.71
2.365 	783.782 	2208.56 	3951.37
2.375 	803.361 	2218.43 	3950.93
2.385 	820.671 	2229.7 	3947.89
2.395 	829.757 	2241.16 	3932.1
2.405 	826.454 	2250.62 	3872.26
2.415 	758.673 	2257.23 	3816.07
2.425 	640.211 	2262.24 	3728.32
2.435 	545.094 	2267.13 	3640.39
2.445 	483.034 	2273.43 	3558.69
2.455 	449.359 	2281.54 	3483.18
2.465 	434.702 	2291.18 	3401.15
2.475 	433.914 	2302.78 	3365.66
2.485 	464.877 	2316.95 	3318.82
2.495 	522.537 	2330.97 	3141.51
2.505 	573.916 	2342.23 	3037.98
2.515 	623.926 	2355.48 	3038.04
2.525 	663.078 	2370.5 	3037.88
2.535 	692.832 	2386.24 	3036.36
2.545 	715.482 	2402.02 	3031.58
2.555 	733.651 	2417.33 	3015.67
2.565 	742.978 	2430.91 	2964.49
2.575 	738.783 	2439.75 	2834.23
2.585 	721.256 	2442.42 	2643.97
2.595 	713.279 	2441.87 	2483.72
2.605 	714.237 	2443.44 	2400.27
2.615 	728.046 	2449.64 	2389.47
2.625 	740.259 	2459.24 	2389.56
2.635 	754.378 	2470.48 	2389.74
2.645 	771.536 	2482.58 	2389.15
2.655 	789.135 	2495.18 	2386.39
2.665 	805.614 	2507.92 	2376.86
2.675 	818.523 	2519.88 	2340.51
2.685 	821.834 	2528.06 	2231.39
2.695 	820.174 	2530.56 	2074.9
2.705 	823.633 	2531.05 	1964.14
2.715 	835.048 	2530.68 	1887.39
2.725 	869.059 	2533.89 	1878.2
2.735 	904.359 	2541.27 	1878.32
2.745 	934.295 	2551.08 	1878.29
2.755 	958.949 	2562.23 	1877.82
2.765 	975.875 	2574.11 	1876.51
2.775 	993.002 	2586.34 	1874.38
2.785 	1015.67 	2598.86 	1872.65
2.795 	1031.55 	2611.67 	1871.53
2.805 	1037.67 	2624.56 	1867.7
2.815 	1052.87 	2637.43 	1864.05
2.825 	1083.95 	2650.19 	1860.81
2.835 	1106.32 	2662.21 	1849.57
2.845 	1106.29 	2670.89 	1822.63
2.855 	1018.26 	2675.49 	1792.83
2.865 	845.271 	2678.52 	1758.87
2.875 	697.695 	2680.24 	1707.21
2.885 	590.859 	2682.39 	1653.89
2.895 	526.083 	2686.49 	1605.1
2.905 	493.453 	2692.99 	1561.2
2.915 	484.57 	2701.9 	1523.94
2.925 	496.776 	2714.09 	1499.97
2.935 	579.742 	2727.26 	1403.24
2.945 	677.342 	2740.4 	1378.33
2.955 	743.087 	2755.55 	1377.38
2.965 	779.066 	2769.98 	1373.25
2.975 	802.673 	2782.01 	1351.93
2.985 	815.301 	2788.81 	1250.71
2.995 	836.002 	2791.57 	1164.6
3.005 	870.98 	2799.85 	1162.99
3.015 	893.268 	2811.88 	1163.28
3.025 	915.702 	2825.26 	1163.33
3.035 	945.997 	2839.26 	1164.01
3.045 	976.493 	2853.7 	1163.72
3.055 	999.296 	2868.41 	1163.49
3.065 	1013.93 	2883.22 	1162.88
3.075 	1021.07 	2898.02 	1162.6
3.085 	1024.64 	2912.73 	1162
3.095 	1034.05 	2927.38 	1159.79
3.105 	1060.26 	2941.93 	1157.72
3.115 	1094.09 	2956.29 	1155.81
3.125 	1116.91 	2969.65 	1146
3.135 	1123.05 	2980.14 	1123.95
3.145 	1112.48 	2984 	1053.53
3.155 	1096.11 	2979.14 	959.515
3.165 	1092.9 	2968.41 	876.945
3.175 	1137.02 	2961.74 	856.835
3.185 	1197.37 	2963.76 	857.245
3.195 	1258.33 	2970.57 	858.223
3.205 	1314.18 	2979.6 	858.741
3.215 	1355.82 	2989.52 	858.382
3.225 	1377.77 	2999.68 	858.77
3.235 	1383.86 	3009.77 	858.576
3.245 	1382.1 	3019.79 	857.844
3.255 	1329.74 	3029.85 	857.666
3.265 	1140.42 	3039.49 	857.159
3.275 	956.77 	3048.6 	855.612
3.285 	795.908 	3057.66 	854.549
3.295 	686.738 	3067.14 	852.107
3.305 	642.601 	3077.73 	849.113
3.315 	638.266 	3090.23 	847.798
3.325 	671.298 	3104.81 	840.357
3.335 	754.451 	3120.96 	820.226
3.345 	800.235 	3133.08 	760.321
3.355 	824.876 	3134.27 	663.715
3.365 	879.584 	3137.67 	655.365
3.375 	930.435 	3146.89 	655.507
3.385 	973.058 	3159.13 	655.768
3.395 	1009.67 	3172.7 	655.671
3.405 	1037.43 	3186.65 	655.468
3.415 	1052.94 	3200.31 	654.246
3.425 	1058.47 	3212.98 	650.901
3.435 	1055.9 	3223.31 	636.979
3.445 	1039.34 	3227.71 	594.625
3.455 	1028.73 	3224.26 	539.79
3.465 	1042.87 	3219.33 	510.344
3.475 	1099.06 	3221.53 	509.675
3.485 	1141.63 	3229.42 	510.229
3.495 	1168.83 	3240.29 	511.411
3.505 	1184.87 	3252.51 	511.972
3.515 	1192.73 	3265.22 	512.13
3.525 	1195.66 	3278.07 	512.207
3.535 	1197.63 	3290.88 	511.954
3.545 	1206.95 	3303.59 	512.279
3.555 	1230.91 	3316.25 	512.265
3.565 	1263.12 	3328.96 	512.106
3.575 	1297.51 	3341.73 	512.052
3.585 	1327.36 	3354.51 	511.774
3.595 	1352.03 	3367.19 	511.102
3.605 	1377.08 	3379.74 	511.131
3.615 	1404.28 	3392.1 	510.006
3.625 	1432.67 	3404.33 	509.734
3.635 	1459.54 	3416.43 	508.336
3.645 	1489.11 	3428.46 	507.61
3.655 	1530.65 	3440.48 	505.721
3.665 	1589.87 	3452.66 	505.062
3.675 	1657.27 	3465.06 	502.164
3.685 	1719.46 	3477.55 	500.379
3.695 	1758.89 	3488.93 	493.679
3.705 	1767.08 	3494.06 	472.286
3.715 	1718.44 	3484.73 	428.759
3.725 	1663.59 	3466.12 	390.328
3.735 	1641.57 	3456.29 	381.342
3.745 	1425.08 	3458.22 	381.455
3.755 	1115.7 	3465.09 	381.939
3.765 	911.074 	3473.07 	382.138
3.775 	793.048 	3481.27 	382.136
3.785 	735.346 	3489.87 	382.084
3.795 	714.897 	3499.18 	381.904
3.805 	712.488 	3509.47 	381.559
3.815 	728.949 	3520.82 	380.85
3.825 	794.994 	3533.46 	377.822
3.835 	863.154 	3547.01 	373.17
3.845 	929.45 	3561.65 	371.913
3.855 	995.263 	3577.41 	370.287
3.865 	1060.99 	3594.06 	370.032
3.875 	1124.54 	3611.55 	369.35
3.885 	1182.02 	3629.15 	366.802
3.895 	1217.9 	3644.71 	357.146
3.905 	1222.46 	3652.06 	329.749