-4.995 	500 	1.7623e-12 	1.5e+07
-4.985 	500 	1.62674e-12 	1.5e+07
-4.975 	500 	2.71123e-13 	1.5e+07
-4.965 	500 	4.06685e-13 	1.5e+07
-4.955 	500 	1.22005e-12 	1.5e+07
-4.945 	500 	1.08449e-12 	1.5e+07
-4.935 	500 	2.27713e-26 	1.5e+07
-4.925 	500 	2.2787e-26 	1.5e+07
-4.915 	500 	1.08449e-12 	1.5e+07
-4.905 	500 	1.22005e-12 	1.5e+07
-4.895 	500 	4.06662e-12 	1.5e+07
-4.885 	500 	2.98217e-12 	1.5e+07
-4.875 	500 	1.35562e-13 	1.5e+07
-4.865 	500 	4.93023e-26 	1.5e+07
-4.855 	500 	3.35029e-76 	1.5e+07
-4.845 	500 	4.17515e-26 	1.5e+07
-4.835 	500 	4.06685e-13 	1.5e+07
-4.825 	500 	5.42246e-13 	1.5e+07
-4.815 	500 	2.74207e-25 	1.5e+07
-4.805 	500 	2.43996e-12 	1.5e+07
-4.795 	500 	1.89768e-12 	1.5e+07
-4.785 	500 	1.08449e-12 	1.5e+07
-4.775 	500 	1.22005e-12 	1.5e+07
-4.765 	500 	1.7623e-12 	1.5e+07
-4.755 	500 	2.71123e-13 	1.5e+07
-4.745 	500 	4.55426e-26 	1.5e+07
-4.735 	500 	4.62443e-75 	1.5e+07
-4.725 	500 	1.62674e-12 	1.5e+07
-4.715 	500 	1.00244e-34 	1.5e+07
-4.705 	500 	1.35559e-12 	1.5e+07
-4.695 	500 	4.93615e-26 	1.5e+07
-4.685 	500 	7.18396e-12 	1.5e+07
-4.675 	500 	6.50626e-12 	1.5e+07
-4.665 	500 	8.13369e-13 	1.5e+07
-4.655 	500 	6.77808e-13 	1.5e+07
-4.645 	500 	4.93362e-26 	1.5e+07
-4.635 	500 	1.35562e-12 	1.5e+07
-4.625 	500 	1.7623e-12 	1.5e+07
-4.615 	500 	2.71122e-18 	1.5e+07
-4.605 	500 	3.52459e-17 	1.5e+07
-4.595 	500 	9.11308e-36 	1.5e+07
-4.585 	500 	1.7623e-12 	1.5e+07
-4.575 	500 	1.35562e-12 	1.5e+07
-4.565 	500 	1.51809e-26 	1.5e+07
-4.555 	500 	3.03373e-26 	1.5e+07
-4.545 	500 	3.65995e-12 	1.5e+07
-4.535 	500 	2.57549e-12 	1.5e+07
-4.525 	500 	2.16898e-17 	1.5e+07
-4.515 	500 	1.7623e-12 	1.5e+07
-4.505 	500 	4.06685e-13 	1.5e+07
-4.495 	500 	4.18765e-26 	1.5e+07
-4.485 	500 	1.68807e-114 	1.5e+07
-4.475 	500 	7.49762e-82 	1.5e+07
-4.465 	500 	4.55442e-26 	1.5e+07
-4.455 	500 	2.71123e-13 	1.5e+07
-4.445 	500 	4.06685e-13 	1.5e+07
-4.435 	500 	3.64532e-35 	1.5e+07
-4.425 	500 	1.08449e-12 	1.5e+07
-4.415 	500 	9.48931e-13 	1.5e+07
-4.405 	500 	2.6552e-26 	1.5e+07
-4.395 	500 	1.8978e-26 	1.5e+07
-4.385 	500 	1.22005e-12 	1.5e+07
-4.375 	500 	1.35562e-12 	1.5e+07
-4.365 	500 	2.71123e-13 	1.5e+07
-4.355 	500 	0 	1.5e+07
-4.345 	500 	0 	1.5e+07
-4.335 	500 	1.35562e-13 	1.5e+07
-4.325 	500 	2.71123e-13 	1.5e+07
-4.315 	500 	4.47328e-12 	1.5e+07
-4.305 	500 	4.20211e-12 	1.5e+07
-4.295 	500 	6.77808e-13 	1.5e+07
-4.285 	500 	9.48931e-13 	1.5e+07
-4.275 	500 	3.65991e-12 	1.5e+07
-4.265 	500 	2.16878e-12 	1.5e+07
-4.255 	500 	2.84669e-12 	1.5e+07
-4.245 	500 	2.57548e-12 	1.5e+07
-4.235 	500 	1.7623e-12 	1.5e+07
-4.225 	500 	1.35591e-13 	1.5e+07
-4.215 	500 	5.11506e-28 	1.5e+07
-4.205 	500 	1.35562e-13 	1.5e+07
-4.195 	500 	1.7623e-12 	1.5e+07
-4.185 	500 	0 	1.5e+07
-4.175 	500 	1.22005e-12 	1.5e+07
-4.165 	500 	6.77808e-13 	1.5e+07
-4.155 	500 	0 	1.5e+07
-4.145 	500 	9.48931e-13 	1.5e+07
-4.135 	500 	3.93105e-12 	1.5e+07
-4.125 	500 	4.20213e-12 	1.5e+07
-4.115 	500 	3.7976e-26 	1.5e+07
-4.105 	500 	7.58697e-27 	1.5e+07
-4.095 	500 	1.62674e-12 	1.5e+07
-4.085 	500 	1.7623e-12 	1.5e+07
-4.075 	500 	1.35562e-13 	1.5e+07
-4.065 	500 	0 	1.5e+07
-4.055 	500 	1.51814e-25 	1.5e+07
-4.045 	500 	2.3044e-12 	1.5e+07
-4.035 	500 	3.11776e-12 	1.5e+07
-4.025 	500 	4.93869e-26 	1.5e+07
-4.015 	500 	9.48931e-13 	1.5e+07
-4.005 	500 	1.08449e-12 	1.5e+07
-3.995 	500 	3.64532e-35 	1.5e+07
-3.985 	500 	1.35553e-12 	1.5e+07
-3.975 	500 	1.49108e-12 	1.5e+07
-3.965 	500 	1.35562e-13 	1.5e+07
-3.955 	500 	3.91309e-28 	1.5e+07
-3.945 	500 	1.7623e-12 	1.5e+07
-3.935 	500 	1.49118e-12 	1.5e+07
-3.925 	500 	3.11761e-12 	1.5e+07
-3.915 	500 	2.30436e-12 	1.5e+07
-3.905 	500 	6.77808e-13 	1.5e+07
-3.895 	500 	1.62673e-12 	1.5e+07
-3.885 	500 	9.48931e-13 	1.5e+07
-3.875 	500 	6.77808e-13 	1.5e+07
-3.865 	500 	5.42246e-13 	1.5e+07
-3.855 	500 	1.13799e-26 	1.5e+07
-3.845 	500 	1.49118e-12 	1.5e+07
-3.835 	500 	1.62674e-12 	1.5e+07
-3.825 	500 	4.46367e-25 	1.5e+07
-3.815 	500 	4.06757e-13 	1.5e+07
-3.805 	500 	2.03336e-12 	1.5e+07
-3.795 	500 	4.06685e-13 	1.5e+07
-3.785 	500 	5.42246e-13 	1.5e+07
-3.775 	500 	1.32799e-114 	1.5e+07
-3.765 	500 	2.65544e-26 	1.5e+07
-3.755 	500 	9.48931e-13 	1.5e+07
-3.745 	500 	1.08449e-12 	1.5e+07
-3.735 	500 	1.22006e-12 	1.5e+07
-3.725 	500 	1.76227e-12 	1.5e+07
-3.715 	500 	2.71123e-13 	1.5e+07
-3.705 	500 	7.98529e-26 	1.5e+07
-3.695 	500 	5.28657e-12 	1.5e+07
-3.685 	500 	4.87991e-12 	1.5e+07
-3.675 	500 	6.85597e-26 	1.5e+07
-3.665 	500 	0 	1.5e+07
-3.655 	500 	5.42246e-13 	1.5e+07
-3.645 	500 	2.84668e-12 	1.5e+07
-3.635 	500 	3.66003e-12 	1.5e+07
-3.625 	500 	1.76226e-12 	1.5e+07
-3.615 	500 	4.93932e-26 	1.5e+07
-3.605 	500 	1.22005e-12 	1.5e+07
-3.595 	500 	1.35562e-12 	1.5e+07
-3.585 	500 	3.81706e-75 	1.5e+07
-3.575 	500 	3.79628e-27 	1.5e+07
-3.565 	500 	1.7623e-12 	1.5e+07
-3.555 	500 	1.6267e-12 	1.5e+07
-3.545 	500 	5.4243e-13 	1.5e+07
-3.535 	500 	2.16894e-12 	1.5e+07
-3.525 	500 	2.1012e-12 	1.5e+07
-3.515 	500 	6.77808e-13 	1.5e+07
-3.505 	500 	8.13369e-13 	1.5e+07
-3.495 	500 	8.13369e-13 	1.5e+07
-3.485 	500 	6.77808e-13 	1.5e+07
-3.475 	500 	5.42234e-13 	1.5e+07
-3.465 	500 	8.13313e-13 	1.5e+07
-3.455 	500 	2.77868e-12 	1.5e+07
-3.445 	500 	2.64337e-12 	1.5e+07
-3.435 	500 	8.81042e-13 	1.5e+07
-3.425 	500 	1.76229e-12 	1.5e+07
-3.415 	500 	1.49118e-12 	1.5e+07
-3.405 	500 	1.1404e-26 	1.5e+07
-3.395 	500 	1.22005e-12 	1.5e+07
-3.385 	500 	1.08449e-12 	1.5e+07
-3.375 	500 	2.57551e-12 	1.5e+07
-3.365 	500 	3.66006e-12 	1.5e+07
-3.355 	500 	1.08449e-12 	1.5e+07
-3.345 	500 	5.42246e-13 	1.5e+07
-3.335 	500 	4.06685e-13 	1.5e+07
-3.325 	500 	4.18046e-26 	1.5e+07
-3.315 	500 	3.79308e-27 	1.5e+07
-3.305 	500 	1.7623e-12 	1.5e+07
-3.295 	500 	1.01679e-12 	1.5e+07
-3.285 	500 	1.76228e-12 	1.5e+07
-3.275 	500 	1.76223e-12 	1.5e+07
-3.265 	500 	1.54018e-26 	1.5e+07
-3.255 	500 	1.7623e-12 	1.5e+07
-3.245 	500 	9.48931e-13 	1.5e+07
-3.235 	500 	2.66301e-26 	1.5e+07
-3.225 	500 	6.77792e-13 	1.5e+07
-3.215 	500 	5.42234e-13 	1.5e+07
-3.205 	500 	1.35558e-12 	1.5e+07
-3.195 	500 	1.49114e-12 	1.5e+07
-3.185 	500 	1.35562e-13 	1.5e+07
-3.175 	500 	2.64323e-12 	1.5e+07
-3.165 	500 	1.69443e-12 	1.5e+07
-3.155 	500 	1.49108e-12 	1.5e+07
-3.145 	500 	2.71115e-12 	1.5e+07
-3.135 	500 	1.22005e-12 	1.5e+07
-3.125 	500 	6.77808e-13 	1.5e+07
-3.115 	500 	2.71125e-12 	1.5e+07
-3.105 	500 	4.06814e-13 	1.5e+07
-3.095 	500 	1.01663e-12 	1.5e+07
-3.085 	500 	8.13302e-13 	1.5e+07
-3.075 	500 	1.4912e-12 	1.5e+07
-3.065 	500 	1.49118e-12 	1.5e+07
-3.055 	500 	3.41388e-76 	1.5e+07
-3.045 	500 	4.96099e-26 	1.5e+07
-3.035 	500 	1.35562e-13 	1.5e+07
-3.025 	500 	3.52452e-12 	1.5e+07
-3.015 	500 	1.76225e-12 	1.5e+07
-3.005 	500 	2.44003e-12 	1.5e+07
-2.995 	500 	1.45812e-39 	1.5e+07
-2.985 	500 	2.16888e-12 	1.5e+07
-2.975 	500 	4.74407e-13 	1.5e+07
-2.965 	500 	1.76223e-12 	1.5e+07
-2.955 	500 	2.43993e-12 	1.5e+07
-2.945 	500 	1.35553e-12 	1.5e+07
-2.935 	500 	1.18473e-34 	1.5e+07
-2.925 	500 	3.79605e-27 	1.5e+07
-2.915 	500 	1.76226e-12 	1.5e+07
-2.905 	500 	3.25347e-17 	1.5e+07
-2.895 	500 	1.15233e-12 	1.5e+07
-2.885 	500 	3.52426e-12 	1.5e+07
-2.875 	500 	3.65986e-12 	1.5e+07
-2.865 	500 	2.57541e-12 	1.5e+07
-2.855 	500 	2.16888e-12 	1.5e+07
-2.845 	500 	2.65885e-26 	1.5e+07
-2.835 	500 	6.77765e-13 	1.5e+07
-2.825 	500 	1.08451e-12 	1.5e+07
-2.815 	500 	3.59221e-12 	1.5e+07
-2.805 	500 	3.25317e-12 	1.5e+07
-2.795 	500 	4.56318e-26 	1.5e+07
-2.785 	500 	4.20803e-39 	1.5e+07
-2.775 	500 	1.62674e-12 	1.5e+07
-2.765 	500 	1.49118e-12 	1.5e+07
-2.755 	500 	1.7623e-12 	1.5e+07
-2.745 	500 	3.41295e-26 	1.5e+07
-2.735 	500 	6.77808e-13 	1.5e+07
-2.725 	500 	1.7623e-12 	1.5e+07
-2.715 	500 	1.69451e-12 	1.5e+07
-2.705 	500 	1.90069e-26 	1.5e+07
-2.695 	500 	1.22005e-12 	1.5e+07
-2.685 	500 	1.35562e-12 	1.5e+07
-2.675 	500 	2.71123e-13 	1.5e+07
-2.665 	500 	1.01671e-12 	1.5e+07
-2.655 	500 	1.7623e-12 	1.5e+07
-2.645 	500 	3.79781e-27 	1.5e+07
-2.635 	500 	0 	1.5e+07
-2.625 	500 	8.20177e-35 	1.5e+07
-2.615 	500 	5.42383e-13 	1.5e+07
-2.605 	500 	3.1177e-12 	1.5e+07
-2.595 	500 	1.62673e-12 	1.5e+07
-2.585 	500 	3.52443e-12 	1.5e+07
-2.575 	500 	1.55879e-12 	1.5e+07
-2.565 	500 	1.22005e-12 	1.5e+07
-2.555 	500 	4.06685e-13 	1.5e+07
-2.545 	500 	2.71123e-13 	1.5e+07
-2.535 	500 	1.35562e-13 	1.5e+07
-2.525 	500 	2.64323e-12 	1.5e+07
-2.515 	500 	1.69443e-12 	1.5e+07
-2.505 	500 	2.71123e-13 	1.5e+07
-2.495 	500 	4.06685e-13 	1.5e+07
-2.485 	500 	1.64034e-34 	1.5e+07
-2.475 	500 	0 	1.5e+07
-2.465 	500 	1.27586e-39 	1.5e+07
-2.455 	500 	8.13369e-13 	1.5e+07
-2.445 	500 	1.35561e-12 	1.5e+07
-2.435 	500 	2.10101e-12 	1.5e+07
-2.425 	500 	3.11764e-12 	1.5e+07
-2.415 	500 	2.71123e-13 	1.5e+07
-2.405 	500 	1.35562e-13 	1.5e+07
-2.395 	500 	4.9469e-26 	1.5e+07
-2.385 	500 	9.11331e-36 	1.5e+07
-2.375 	500 	1.82266e-35 	1.5e+07
-2.365 	500 	0 	1.5e+07
-2.355 	500 	3.12434e-75 	1.5e+07
-2.345 	500 	1.08449e-12 	1.5e+07
-2.335 	500 	9.48931e-13 	1.5e+07
-2.325 	500 	8.13369e-13 	1.5e+07
-2.315 	500 	6.77808e-13 	1.5e+07
-2.305 	500 	3.42478e-26 	1.5e+07
-2.295 	500 	1.13863e-26 	1.5e+07
-2.285 	500 	1.49118e-12 	1.5e+07
-2.275 	500 	1.62674e-12 	1.5e+07
-2.265 	500 	1.7623e-12 	1.5e+07
-2.255 	500 	1.83006e-12 	1.5e+07
-2.245 	500 	4.06651e-13 	1.5e+07
-2.235 	500 	4.06685e-13 	1.5e+07
-2.225 	500 	5.42246e-13 	1.5e+07
-2.215 	500 	2.09603e-34 	1.5e+07
-2.205 	500 	0 	1.5e+07
-2.195 	500 	6.37932e-35 	1.5e+07
-2.185 	500 	1.08449e-12 	1.5e+07
-2.175 	500 	2.4401e-12 	1.5e+07
-2.165 	500 	1.35562e-12 	1.5e+07
-2.155 	500 	7.60218e-27 	1.5e+07
-2.145 	500 	1.62674e-12 	1.5e+07
-2.135 	500 	-1.46729e-28 	1.5e+07
-2.125 	500 	1.83006e-12 	1.5e+07
-2.115 	500 	3.65982e-12 	1.5e+07
-2.105 	500 	2.23663e-12 	1.5e+07
-2.095 	500 	1.22005e-12 	1.5e+07
-2.085 	500 	3.05013e-12 	1.5e+07
-2.075 	500 	9.48931e-13 	1.5e+07
-2.065 	500 	2.65847e-26 	1.5e+07
-2.055 	500 	6.77808e-13 	1.5e+07
-2.045 	500 	5.42246e-13 	1.5e+07
-2.035 	500 	3.79343e-26 	1.5e+07
-2.025 	500 	2.71123e-13 	1.5e+07
-2.015 	500 	1.35562e-13 	1.5e+07
-2.005 	500 	1.76226e-12 	1.5e+07
-1.995 	500 	2.71122e-18 	1.5e+07
-1.985 	500 	8.94596e-12 	1.5e+07
-1.975 	500 	7.18375e-12 	1.5e+07
-1.965 	500 	2.44005e-12 	1.5e+07
-1.955 	500 	3.93111e-12 	1.5e+07
-1.945 	500 	3.52459e-17 	1.5e+07
-1.935 	500 	3.52459e-17 	1.5e+07
-1.925 	500 	7.31987e-12 	1.5e+07
-1.915 	500 	2.44015e-12 	1.5e+07
-1.905 	500 	3.38858e-12 	1.5e+07
-1.895 	500 	1.76223e-12 	1.5e+07
-1.885 	500 	1.69445e-12 	1.5e+07
-1.875 	500 	8.81042e-13 	1.5e+07
-1.865 	500 	1.13921e-24 	1.5e+07
-1.855 	500 	5.82857e-12 	1.5e+07
-1.845 	500 	1.76208e-12 	1.5e+07
-1.835 	500 	4.47308e-12 	1.5e+07
-1.825 	500 	4.47306e-12 	1.5e+07
-1.815 	500 	4.87957e-12 	1.5e+07
-1.805 	500 	8.13337e-13 	1.5e+07
-1.795 	500 	4.74423e-12 	1.5e+07
-1.785 	500 	5.15085e-12 	1.5e+07
-1.775 	500 	2.71112e-12 	1.5e+07
-1.765 	500 	5.42245e-18 	1.5e+07
-1.755 	500 	8.26821e-12 	1.5e+07
-1.745 	500 	1.05725e-11 	1.5e+07
-1.735 	500 	3.25331e-12 	1.5e+07
-1.725 	500 	3.79589e-12 	1.5e+07
-1.715 	500 	6.50646e-12 	1.5e+07
-1.705 	500 	2.71099e-12 	1.5e+07
-1.695 	500 	2.4398e-12 	1.5e+07
-1.685 	500 	6.37073e-12 	1.5e+07
-1.675 	500 	1.76208e-12 	1.5e+07
-1.665 	500 	4.40523e-12 	1.5e+07
-1.655 	500 	1.69456e-12 	1.5e+07
-1.645 	500 	1.22001e-12 	1.5e+07
-1.635 	500 	5.42218e-13 	1.5e+07
-1.625 	500 	1.6267e-12 	1.5e+07
-1.615 	500 	3.52459e-17 	1.5e+07
-1.605 	500 	3.52459e-17 	1.5e+07
-1.595 	500 	5.42296e-13 	1.5e+07
-1.585 	500 	4.06668e-13 	1.5e+07
-1.575 	500 	5.42225e-13 	1.5e+07
-1.565 	500 	3.5243e-12 	1.5e+07
-1.555 	500 	1.13871e-16 	1.5e+07
-1.545 	500 	1.62667e-12 	1.5e+07
-1.535 	500 	3.52459e-17 	1.5e+07
-1.525 	500 	1.64034e-34 	1.5e+07
-1.515 	500 	0 	1.5e+07
-1.505 	500 	3.66001e-12 	1.5e+07
-1.495 	500 	2.8467e-12 	1.5e+07
-1.485 	500 	2.25678e-25 	1.5e+07
-1.475 	500 	1.62668e-12 	1.5e+07
-1.465 	500 	3.7277e-12 	1.5e+07
-1.455 	500 	2.91448e-12 	1.5e+07
-1.445 	500 	1.08447e-12 	1.5e+07
-1.435 	500 	1.35559e-12 	1.5e+07
-1.425 	500 	1.62667e-12 	1.5e+07
-1.415 	500 	4.06635e-13 	1.5e+07
-1.405 	500 	8.81124e-13 	1.5e+07
-1.395 	500 	2.91439e-12 	1.5e+07
-1.385 	500 	7.59066e-12 	1.5e+07
-1.375 	500 	4.47268e-12 	1.5e+07
-1.365 	500 	3.9311e-12 	1.5e+07
-1.355 	500 	1.40984e-16 	1.5e+07
-1.345 	500 	1.62655e-12 	1.5e+07
-1.335 	500 	7.31922e-12 	1.5e+07
-1.325 	500 	8.53934e-12 	1.5e+07
-1.315 	500 	7.18406e-12 	1.5e+07
-1.305 	500 	8.40407e-12 	1.5e+07
-1.295 	500 	2.30453e-12 	1.5e+07
-1.285 	500 	4.74412e-12 	1.5e+07
-1.275 	500 	7.45521e-12 	1.5e+07
-1.265 	500 	2.30443e-12 	1.5e+07
-1.255 	500 	2.0332e-12 	1.5e+07
-1.245 	500 	1.08447e-12 	1.5e+07
-1.235 	500 	1.62667e-12 	1.5e+07
-1.225 	500 	3.00818e-30 	1.5e+07
-1.215 	500 	2.71122e-18 	1.5e+07
-1.205 	500 	1.2879e-12 	1.5e+07
-1.195 	500 	2.64329e-12 	1.5e+07
-1.185 	500 	5.15092e-12 	1.5e+07
-1.175 	500 	2.16889e-12 	1.5e+07
-1.165 	500 	3.52459e-17 	1.5e+07
-1.155 	500 	6.37905e-35 	1.5e+07
-1.145 	500 	1.35561e-12 	1.5e+07
-1.135 	500 	5.55741e-12 	1.5e+07
-1.125 	500 	3.79542e-12 	1.5e+07
-1.115 	500 	2.03337e-12 	1.5e+07
-1.105 	500 	1.89772e-12 	1.5e+07
-1.095 	500 	3.52449e-12 	1.5e+07
-1.085 	500 	3.25334e-12 	1.5e+07
-1.075 	500 	3.52459e-17 	1.5e+07
-1.065 	500 	8.13467e-13 	1.5e+07
-1.055 	500 	1.08446e-12 	1.5e+07
-1.045 	500 	1.08445e-12 	1.5e+07
-1.035 	500 	3.25302e-12 	1.5e+07
-1.025 	500 	7.18406e-12 	1.5e+07
-1.015 	500 	6.77781e-13 	1.5e+07
-1.005 	500 	4.47327e-12 	1.5e+07
-0.995 	500 	2.98219e-12 	1.5e+07
-0.985 	500 	3.25337e-12 	1.5e+07
-0.975 	500 	1.89782e-12 	1.5e+07
-0.965 	500 	1.76223e-12 	1.5e+07
-0.955 	500 	1.35556e-13 	1.5e+07
-0.945 	500 	1.49109e-12 	1.5e+07
-0.935 	500 	4.06686e-13 	1.5e+07
-0.925 	500 	1.76219e-12 	1.5e+07
-0.915 	500 	1.35559e-12 	1.5e+07
-0.905 	500 	1.62667e-12 	1.5e+07
-0.895 	500 	8.13318e-13 	1.5e+07
-0.885 	500 	1.08442e-12 	1.5e+07
-0.875 	500 	1.08449e-17 	1.5e+07
-0.865 	500 	4.06696e-13 	1.5e+07
-0.855 	500 	1.49115e-12 	1.5e+07
-0.845 	500 	2.71122e-18 	1.5e+07
-0.835 	500 	3.52459e-17 	1.5e+07
-0.825 	500 	1.35591e-13 	1.5e+07
-0.815 	500 	2.71112e-13 	1.5e+07
-0.805 	500 	1.3555e-12 	1.5e+07
-0.795 	500 	1.21999e-12 	1.5e+07
-0.785 	500 	2.16898e-17 	1.5e+07
-0.775 	500 	1.62673e-17 	1.5e+07
-0.765 	500 	3.38883e-12 	1.5e+07
-0.755 	500 	5.15095e-12 	1.5e+07
-0.745 	500 	3.93083e-12 	1.5e+07
-0.735 	500 	3.52449e-12 	1.5e+07
-0.725 	500 	2.03337e-12 	1.5e+07
-0.715 	500 	3.52459e-17 	1.5e+07
-0.705 	500 	7.04918e-17 	1.5e+07
-0.695 	500 	3.25335e-12 	1.5e+07
-0.685 	500 	3.52459e-17 	1.5e+07
-0.675 	500 	4.06723e-13 	1.5e+07
-0.665 	500 	1.76224e-12 	1.5e+07
-0.655 	500 	3.79521e-12 	1.5e+07
-0.645 	500 	5.82851e-12 	1.5e+07
-0.635 	500 	1.76223e-12 	1.5e+07
-0.625 	500 	6.77781e-13 	1.5e+07
-0.615 	500 	2.98226e-12 	1.5e+07
-0.605 	500 	3.11784e-12 	1.5e+07
-0.595 	500 	1.30139e-16 	1.5e+07
-0.585 	500 	3.25347e-17 	1.5e+07
-0.575 	500 	3.52449e-12 	1.5e+07
-0.565 	500 	3.25334e-12 	1.5e+07
-0.555 	500 	2.71217e-13 	1.5e+07
-0.545 	500 	4.06668e-13 	1.5e+07
-0.535 	500 	1.22001e-12 	1.5e+07
-0.525 	500 	1.08445e-12 	1.5e+07
-0.515 	500 	3.7951e-12 	1.5e+07
-0.505 	500 	4.20168e-12 	1.5e+07
-0.495 	500 	1.08446e-12 	1.5e+07
-0.485 	500 	1.76223e-12 	1.5e+07
-0.475 	500 	4.06668e-13 	1.5e+07
-0.465 	500 	1.49112e-12 	1.5e+07
-0.455 	500 	1.76223e-12 	1.5e+07
-0.445 	500 	1.76215e-12 	1.5e+07
-0.435 	500 	1.3561e-13 	1.5e+07
-0.425 	500 	7.4547e-12 	1.5e+07
-0.415 	500 	5.8282e-12 	1.5e+07
-0.405 	500 	5.96469e-17 	1.5e+07
-0.395 	500 	1.76224e-12 	1.5e+07
-0.385 	500 	1.62669e-12 	1.5e+07
-0.375 	500 	1.76225e-12 	1.5e+07
-0.365 	500 	1.35556e-12 	1.5e+07
-0.355 	500 	4.74431e-12 	1.5e+07
-0.345 	500 	4.06648e-12 	1.5e+07
-0.335 	500 	3.52459e-17 	1.5e+07
-0.325 	500 	3.83459e-13 	1.5e+07
-0.315 	500 	1.37754e-10 	1.5e+07
-0.305 	500 	2.92672e-09 	1.5e+07
-0.295 	500 	3.31325e-08 	1.5e+07
-0.285 	500 	3.3227e-07 	1.5e+07
-0.275 	500 	3.03387e-06 	1.5e+07
-0.265 	500 	2.51654e-05 	1.5e+07
-0.255 	500 	0.000188695 	1.5e+07
-0.245 	500 	0.00127152 	1.5e+07
-0.235 	499.998 	0.00764706 	1.49996e+07
-0.225 	499.989 	0.0406713 	1.49979e+07
-0.215 	499.949 	0.187289 	1.499e+07
-0.205 	499.803 	0.725331 	1.49613e+07
-0.195 	499.359 	2.34275 	1.48748e+07
-0.185 	498.293 	6.22926 	1.46683e+07
-0.175 	496.27 	13.6276 	1.42829e+07
-0.165 	493.297 	24.5697 	1.3732e+07
-0.155 	489.656 	38.0646 	1.3082e+07
-0.145 	485.652 	53.0003 	1.23971e+07
-0.135 	481.471 	68.6988 	1.17141e+07
-0.125 	477.201 	84.826 	1.10493e+07
-0.115 	472.883 	101.217 	1.04094e+07
-0.105 	468.546 	117.784 	9.79777e+06
-0.095 	464.196 	134.469 	9.21501e+06
-0.085 	459.763 	151.242 	8.66109e+06
-0.075 	455.181 	168.106 	8.13641e+06
-0.065 	451.335 	185.006 	7.64109e+06
-0.055 	446.89 	201.905 	7.17069e+06
-0.045 	442.539 	218.908 	6.72744e+06
-0.035 	438.194 	235.889 	6.30829e+06
-0.025 	434.375 	252.924 	5.91298e+06
-0.015 	429.348 	269.968 	5.53999e+06
-0.005 	425.78 	287.051 	5.18788e+06
0.005 	421.845 	304.134 	4.85633e+06
0.015 	416.782 	321.232 	4.54428e+06
0.025 	412.715 	338.397 	4.2498e+06
0.035 	409.613 	355.573 	3.97232e+06
0.045 	405.645 	372.706 	3.71184e+06
0.055 	400.587 	389.856 	3.46719e+06
0.065 	395.74 	407.1 	3.23691e+06
0.075 	392.409 	424.436 	3.01939e+06
0.085 	389.721 	441.766 	2.81573e+06
0.095 	386.98 	459.045 	2.62434e+06
0.105 	382.487 	476.204 	2.44572e+06
0.115 	376.867 	493.455 	2.2784e+06
0.125 	371.303 	510.814 	2.12049e+06
0.135 	366.642 	528.402 	1.97277e+06
0.145 	364.825 	546.234 	1.83217e+06
0.155 	363.474 	563.826 	1.70066e+06
0.165 	361.99 	581.522 	1.58005e+06
0.175 	361.09 	599.164 	1.46451e+06
0.185 	357.505 	616.206 	1.35914e+06
0.195 	350.558 	633.607 	1.26364e+06
0.205 	346.102 	651.515 	1.16994e+06
0.215 	340.445 	668.815 	1.08065e+06
0.225 	331.312 	686.222 	1.00209e+06
0.235 	325.933 	704.791 	926787
0.245 	324.048 	723.332 	850350
0.255 	319.84 	741.185 	782350
0.265 	315.04 	759.502 	721649
0.275 	314.147 	778.971 	664182
0.285 	315.081 	798.257 	605202
0.295 	313.38 	815.644 	553311
0.305 	308.437 	834.056 	512202
0.315 	308.959 	855.109 	471029
0.325 	312.178 	875.279 	424231
0.335 	310.119 	892.108 	386730
0.345 	303.498 	911.143 	363471
0.355 	311.682 	938.135 	338295
0.365 	322.89 	961.471 	292484
0.375 	327.289 	979.481 	263631
0.385 	323.871 	994.761 	242388
0.395 	311.67 	1012.35 	227792
0.405 	314.737 	1038.58 	219276
0.415 	348.934 	1072.09 	197086
0.425 	366.766 	1097.24 	167227
0.435 	374.449 	1114.75 	151918
0.445 	374.646 	1129.32 	138968
0.455 	363.256 	1143.75 	131290
0.465 	344.94 	1161.82 	123887
0.475 	347.518 	1188.89 	120605
0.485 	398.244 	1225.3 	110768
0.495 	433.389 	1255.77 	94364.2
0.505 	450.253 	1278.29 	85308.3
0.515 	459.84 	1296.35 	78463.9
0.525 	464.184 	1312.45 	72976.3
0.535 	459.484 	1326.16 	68120.8
0.545 	433.494 	1341.91 	65264.9
0.555 	408.626 	1361.25 	62204
0.565 	407.985 	1387.8 	60596.1
0.575 	467.646 	1425.2 	57647.7
0.585 	530.777 	1462.03 	49134
0.595 	548.464 	1484.18 	43780.5
0.605 	555.849 	1501.6 	41045.4
0.615 	552.966 	1516.11 	38451.7
0.625 	528.366 	1532.26 	37068.9
0.635 	501.682 	1551.76 	35524.1
0.645 	499.813 	1577.93 	34696.4
0.655 	556.148 	1613.63 	33228.9
0.665 	613.541 	1648.27 	29168
0.675 	632.483 	1672.13 	26364.6
0.685 	642.887 	1691.42 	24714.2
0.695 	642.646 	1707.63 	23061.9
0.705 	624.499 	1722.83 	22082.7
0.715 	580.393 	1740.95 	21263.6
0.725 	550.159 	1762.09 	20368.7
0.735 	549.537 	1790.15 	19986
0.745 	631.565 	1829.07 	19265.1
0.755 	719.912 	1869.35 	16945.6
0.765 	760.022 	1898.31 	15295.3
0.775 	792.45 	1923.86 	14430.2
0.785 	812.456 	1946.87 	13518.9
0.795 	827.823 	1966.71 	12775
0.805 	831.984 	1983.62 	12018
0.815 	818.701 	1996.99 	11409.5
0.825 	760.377 	2012.06 	11050.4
0.835 	690.227 	2029.89 	10676.4
0.845 	642.142 	2050.89 	10282.5
0.855 	631.687 	2077.33 	10022.6
0.865 	691.098 	2114.46 	9785.34
0.875 	834.481 	2159.11 	8826.09
0.885 	900.891 	2194.68 	7895.68
0.895 	939.516 	2224.39 	7347.06
0.905 	978.739 	2250.38 	6907.62
0.915 	1024.93 	2276.39 	6594.12
0.925 	1056.41 	2300.61 	6215.14
0.935 	1079.75 	2320.76 	5877.79
0.945 	1089.96 	2337.8 	5569.02
0.955 	1079.61 	2349.67 	5269.65
0.965 	1011.78 	2362.22 	5129.35
0.975 	903.268 	2377.63 	4975.07
0.985 	810.237 	2396.07 	4824.25
0.995 	755.845 	2417.99 	4650.1
1.005 	747.436 	2445.88 	4553.74
1.015 	846.814 	2485.1 	4462.14
1.025 	1073.33 	2535.61 	4100.62
1.035 	1168.03 	2574.19 	3555.89
1.045 	1233.78 	2603.08 	3342.13
1.055 	1282.34 	2629.96 	3173.25
1.065 	1314.2 	2652.47 	2996.2
1.075 	1337.39 	2671.8 	2861.53
1.085 	1337.01 	2686.03 	2700.81
1.095 	1299.19 	2697.15 	2609.59
1.105 	1181 	2710.87 	2539.35
1.115 	1054.51 	2727.29 	2468.62
1.125 	960.434 	2747.21 	2398.95
1.135 	919.718 	2771.07 	2317.31
1.145 	937.567 	2803.57 	2288.02
1.155 	1133.69 	2847.66 	2190.77
1.165 	1289.75 	2890.62 	1940.15
1.175 	1369.77 	2925.88 	1814.23
1.185 	1416.8 	2955.89 	1694.79
1.195 	1489.8 	2982.57 	1615.02
1.205 	1578.76 	3010.94 	1553.42
1.215 	1642.53 	3037.14 	1470.38
1.225 	1693.42 	3058 	1395.84
1.235 	1721.89 	3075.06 	1332.35
1.245 	1714.87 	3084.06 	1257.01
1.255 	1624.28 	3091.43 	1230.19
1.265 	1420.14 	3102.58 	1200.94
1.275 	1224.56 	3116.81 	1171.39
1.285 	1077.28 	3134.46 	1140.52
1.295 	990.508 	3155.72 	1104.87
1.305 	965.677 	3181.77 	1075.42
1.315 	1043.3 	3217.98 	1064.4
1.325 	1479.05 	3272.04 	1022.34
1.335 	1804.81 	3329.51 	893.475
1.345 	1913 	3363.81 	800.834
1.355 	1975.63 	3386.25 	761.095
1.365 	2001.47 	3404.3 	729.493
1.375 	1990.75 	3415.51 	697.057
1.385 	1894.67 	3427.21 	685.323
1.395 	1731.08 	3441.95 	670.664
1.405 	1587.6 	3459.61 	655.884
1.415 	1494.38 	3480.36 	638.796
1.425 	1467.98 	3505.19 	625.391
1.435 	1554.49 	3539.24 	618.333
1.445 	1829.25 	3581.76 	591.056
1.455 	1982.53 	3618.01 	544.094
1.465 	2058.84 	3643.71 	512.359
1.475 	2118.51 	3662.91 	490.912
1.485 	2145.35 	3677.68 	470.795
1.495 	2134.2 	3684.69 	449.672
1.505 	2039.2 	3690.64 	442.19
1.515 	1844.14 	3699.16 	433.378
1.525 	1650.36 	3710.03 	425.15
1.535 	1500.2 	3723.62 	416.838
1.545 	1410.3 	3739.73 	406.66
1.555 	1387.61 	3758.88 	399.455
1.565 	1493.21 	3785.61 	396.806
1.575 	1960.31 	3822.67 	386.102
1.585 	2244.92 	3853.86 	353.703
1.595 	2337.43 	3865.94 	335.468
1.605 	2379.1 	3873.2 	330.251
1.615 	2385.22 	3879.32 	325.991
1.625 	2384.67 	3885.66 	323.797
1.635 	2396.23 	3893.57 	321.977
1.645 	2450.89 	3901.43 	318.812
1.655 	2511.13 	3908.44 	315.671
1.665 	2557.89 	3913.81 	312.763
1.675 	2600.88 	3917.98 	310.685
1.685 	2635.97 	3921.88 	309.506
1.695 	2657.75 	3925.7 	308.674
1.705 	2678.87 	3929.52 	308.287
1.715 	2721.98 	3933.43 	308.118
1.725 	2826.6 	3937.42 	307.867
1.735 	3018.58 	3941.17 	307.111
1.745 	3295.85 	3942.92 	304.589
1.755 	3649.02 	3938.96 	298.398
1.765 	4095.47 	3935.01 	298.197
1.775 	4567.97 	3934.12 	298.189
1.785 	5004.77 	3934.96 	298.186
1.795 	5360.91 	3936.65 	298.181
1.805 	5622.62 	3938.5 	298.156
1.815 	5803.18 	3939.96 	298.142
1.825 	5920.96 	3940.56 	298.136
1.835 	5979.24 	3939.88 	297.916
1.845 	5996.82 	3937.67 	297.733
1.855 	5999.11 	3933.86 	297.588
1.865 	5999.64 	3928.56 	297.414
1.875 	5997.65 	3921.91 	296.188
1.885 	5998.44 	3914.05 	295.163
1.895 	6000 	3901.81 	292.216
1.905 	6000 	3865.57 	280.59
1.915 	5819.76 	3744.93 	247.191
1.925 	4183.76 	3539.96 	205.63
1.935 	2005.45 	3237.78 	126.14
1.945 	805.386 	1882.4 	14.9799
1.955 	314.363 	33.942 	1.09103
1.965 	300 	0.00132162 	1.00001
1.975 	300 	4.04843e-08 	1
1.985 	300 	2.35292e-12 	1
1.995 	300 	2.90871e-12 	1
2.005 	300 	3.63585e-12 	1
2.015 	300 	2.61784e-12 	1
2.025 	300 	2.83599e-12 	1
2.035 	300 	3.70856e-12 	1
2.045 	300 	2.9814e-12 	1
2.055 	300 	6.54488e-13 	1
2.065 	300 	8.72659e-13 	1
2.075 	300 	2.90883e-17 	1
2.085 	300 	1.5271e-12 	1
2.095 	300 	3.34497e-12 	1
2.105 	300 	2.32696e-12 	1
2.115 	300 	8.72597e-13 	1
2.125 	300 	5.08963e-12 	1
2.135 	300 	4.94419e-12 	1
2.145 	300 	3.63604e-17 	1
2.155 	300 	9.45275e-13 	1
2.165 	300 	8.72578e-13 	1
2.175 	300 	4.3637e-13 	1
2.185 	300 	5.81765e-17 	1
2.195 	300 	4.58053e-12 	1
2.205 	300 	5.16254e-12 	1
2.215 	300 	2.03608e-12 	1
2.225 	300 	3.34498e-12 	1
2.235 	300 	1.45437e-12 	1
2.245 	300 	9.45351e-13 	1
2.255 	300 	7.27148e-13 	1
2.265 	300 	5.81601e-13 	1
2.275 	300 	2.9087e-13 	1
2.285 	300 	9.45275e-13 	1
2.295 	300 	2.90874e-12 	1
2.305 	300 	7.99882e-13 	1
2.315 	300 	2.18159e-13 	1
2.325 	300 	3.99937e-12 	1
2.335 	300 	2.54479e-12 	1
2.345 	300 	3.05427e-17 	1
2.355 	300 	3.27226e-12 	1
2.365 	300 	3.41771e-12 	1
2.375 	300 	3.92691e-17 	1
2.385 	300 	2.18148e-12 	1
2.395 	300 	2.39961e-12 	1
2.405 	300 	3.56307e-12 	1
2.415 	300 	9.45331e-13 	1
2.425 	300 	3.49042e-12 	1
2.435 	300 	1.16353e-17 	1
2.445 	300 	5.74407e-12 	1
2.455 	300 	5.45321e-12 	1
2.465 	300 	1.74522e-12 	1
2.475 	300 	1.52707e-12 	1
2.485 	300 	4.07236e-17 	1
2.495 	300 	1.0908e-12 	1
2.505 	300 	3.78126e-12 	1
2.515 	300 	2.18153e-12 	1
2.525 	300 	2.39969e-12 	1
2.535 	300 	2.61787e-12 	1
2.545 	300 	2.83601e-12 	1
2.555 	300 	3.12682e-12 	1
2.565 	300 	5.81723e-13 	1
2.575 	300 	9.45297e-13 	1
2.585 	300 	1.89074e-17 	1
2.595 	300 	1.09077e-12 	1
2.605 	300 	1.52709e-12 	1
2.615 	300 	1.01809e-17 	1
2.625 	300 	5.81719e-13 	1
2.635 	300 	1.52705e-12 	1
2.645 	300 	8.72659e-13 	1
2.655 	300 	1.23623e-12 	1
2.665 	300 	2.90869e-12 	1
2.675 	300 	3.78125e-12 	1
2.685 	300 	1.45442e-18 	1
2.695 	300 	3.63583e-12 	1
2.705 	300 	7.27135e-13 	1
2.715 	300 	1.96342e-12 	1
2.725 	300 	3.05427e-17 	1
2.735 	300 	1.30895e-12 	1
2.745 	300 	3.27221e-12 	1
2.755 	300 	3.19952e-12 	1
2.765 	300 	1.16347e-12 	1
2.775 	300 	3.56311e-12 	1
2.785 	300 	4.07206e-12 	1
2.795 	300 	2.90877e-12 	1
2.805 	300 	6.61675e-12 	1
2.815 	300 	5.23514e-12 	1
2.825 	300 	7.99863e-13 	1
2.835 	300 	1.59963e-12 	1
2.845 	300 	4.36284e-12 	1
2.855 	300 	2.10853e-12 	1
2.865 	300 	3.999e-12 	1
2.875 	300 	1.30892e-12 	1
2.885 	300 	3.78126e-12 	1
2.895 	300 	3.12685e-12 	1
2.905 	300 	1.38161e-12 	1
2.915 	300 	1.01801e-12 	1
2.925 	300 	2.83601e-12 	1
2.935 	300 	5.36133e-25 	1
2.945 	300 	2.9087e-12 	1
2.955 	300 	5.96309e-17 	1
2.965 	300 	3.05406e-12 	1
2.975 	300 	2.6178e-12 	1
2.985 	300 	3.41769e-12 	1
2.995 	300 	4.36299e-13 	1
3.005 	300 	4.87171e-12 	1
3.015 	300 	2.10825e-12 	1
3.025 	300 	3.1268e-12 	1
3.035 	300 	1.38165e-12 	1
3.045 	300 	5.81773e-13 	1
3.055 	300 	2.90862e-13 	1
3.065 	300 	3.78121e-12 	1
3.075 	300 	3.49035e-12 	1
3.085 	300 	3.84022e-51 	1
3.095 	300 	5.08966e-12 	1
3.105 	300 	4.2172e-12 	1
3.115 	300 	5.23589e-17 	1
3.125 	300 	3.12649e-12 	1
3.135 	300 	3.5628e-12 	1
3.145 	300 	3.19955e-12 	1
3.155 	300 	3.49041e-12 	1
3.165 	300 	3.05411e-12 	1
3.175 	300 	3.19954e-12 	1
3.185 	300 	1.16348e-12 	1
3.195 	300 	2.83594e-12 	1
3.205 	300 	3.78127e-12 	1
3.215 	300 	3.63584e-12 	1
3.225 	300 	1.30897e-17 	1
3.235 	300 	2.25424e-12 	1
3.245 	300 	5.38133e-17 	1
3.255 	300 	3.05427e-17 	1
3.265 	300 	1.74523e-12 	1
3.275 	300 	1.62214e-25 	1
3.285 	300 	6.54473e-13 	1
3.295 	300 	3.56312e-12 	1
3.305 	300 	3.63584e-12 	1
3.315 	300 	3.78125e-12 	1
3.325 	300 	1.89074e-17 	1
3.335 	300 	2.90869e-12 	1
3.345 	300 	2.98142e-12 	1
3.355 	300 	2.1815e-12 	1
3.365 	300 	2.03578e-12 	1
3.375 	300 	2.54472e-12 	1
3.385 	300 	1.52705e-12 	1
3.395 	300 	2.03609e-12 	1
3.405 	300 	2.32694e-12 	1
3.415 	300 	1.81788e-12 	1
3.425 	300 	6.54438e-13 	1
3.435 	300 	1.38166e-12 	1
3.445 	300 	2.69049e-12 	1
3.455 	300 	1.89074e-17 	1
3.465 	300 	3.70853e-12 	1
3.475 	300 	7.99866e-13 	1
3.485 	300 	4.36324e-17 	1
3.495 	300 	1.16351e-12 	1
3.505 	300 	1.09079e-12 	1
3.515 	300 	1.30889e-12 	1
3.525 	300 	3.05427e-17 	1
3.535 	300 	2.69054e-12 	1
3.545 	300 	5.81766e-18 	1
3.555 	300 	8.72611e-13 	1
3.565 	300 	3.63585e-12 	1
3.575 	300 	2.90869e-12 	1
3.585 	300 	3.78125e-12 	1
3.595 	300 	2.18171e-13 	1
3.605 	300 	1.59986e-17 	1
3.615 	300 	5.74425e-12 	1
3.625 	300 	2.83556e-12 	1
3.635 	300 	3.40781e-27 	1
3.645 	300 	4.36326e-13 	1
3.655 	300 	3.56285e-12 	1
3.665 	300 	4.07185e-12 	1
3.675 	300 	3.49041e-12 	1
3.685 	300 	2.90862e-12 	1
3.695 	300 	3.34491e-12 	1
3.705 	300 	2.90884e-13 	1
3.715 	300 	2.83592e-12 	1
3.725 	300 	2.61779e-12 	1
3.735 	300 	5.81747e-13 	1
3.745 	300 	1.52694e-12 	1
3.755 	300 	3.70779e-12 	1
3.765 	300 	2.32645e-12 	1
3.775 	300 	1.52712e-12 	1
3.785 	300 	1.30898e-12 	1
3.795 	300 	3.63632e-13 	1
3.805 	300 	1.52702e-12 	1
3.815 	300 	3.0541e-12 	1
3.825 	300 	3.63583e-12 	1
3.835 	300 	2.18174e-13 	1
3.845 	300 	1.89074e-17 	1
3.855 	300 	1.89074e-17 	1
3.865 	300 	7.99928e-13 	1
3.875 	300 	3.05408e-12 	1
3.885 	300 	2.90864e-12 	1
3.895 	300 	2.03607e-12 	1
3.905 	300 	1.74484e-12 	1
3.915 	300 	5.08943e-12 	1
3.925 	300 	2.54491e-12 	1
3.935 	300 	1.16348e-12 	1
3.945 	300 	3.56314e-12 	1
3.955 	300 	2.9814e-12 	1
3.965 	300 	3.70856e-12 	1
3.975 	300 	7.56295e-17 	1
3.985 	300 	3.49035e-12 	1
3.995 	300 	2.54508e-12 	1
4.005 	300 	2.76339e-17 	1
4.015 	300 	5.67221e-17 	1
4.025 	300 	3.12638e-12 	1
4.035 	300 	1.30873e-12 	1
4.045 	300 	2.83596e-12 	1
4.055 	300 	3.49059e-17 	1
4.065 	300 	1.81794e-12 	1
4.075 	300 	2.18147e-12 	1
4.085 	300 	2.39963e-12 	1
4.095 	300 	4.36324e-18 	1
4.105 	300 	1.88914e-27 	1
4.115 	300 	2.18165e-13 	1
4.125 	300 	6.39942e-17 	1
4.135 	300 	4.36325e-18 	1
4.145 	300 	6.54492e-13 	1
4.155 	300 	1.45434e-12 	1
4.165 	300 	8.72649e-18 	1
4.175 	300 	1.30891e-12 	1
4.185 	300 	3.78121e-12 	1
4.195 	300 	1.96333e-12 	1
4.205 	300 	4.65413e-17 	1
4.215 	300 	4.3634e-13 	1
4.225 	300 	3.49043e-12 	1
4.235 	300 	2.83592e-12 	1
4.245 	300 	2.90897e-13 	1
4.255 	300 	4.36322e-13 	1
4.265 	300 	6.54443e-13 	1
4.275 	300 	3.49031e-12 	1
4.285 	300 	1.74496e-12 	1
4.295 	300 	3.05387e-12 	1
4.305 	300 	2.036e-12 	1
4.315 	300 	3.19947e-12 	1
4.325 	300 	1.16353e-17 	1
4.335 	300 	3.56296e-12 	1
4.345 	300 	1.81781e-12 	1
4.355 	300 	5.38133e-17 	1
4.365 	300 	2.83599e-12 	1
4.375 	300 	9.45293e-13 	1
4.385 	300 	2.90883e-18 	1
4.395 	300 	2.18151e-12 	1