-4.995 	500 	3.52459e-12 	1.5e+07
-4.985 	500 	3.25347e-12 	1.5e+07
-4.975 	500 	5.42245e-13 	1.5e+07
-4.965 	500 	8.13367e-13 	1.5e+07
-4.955 	500 	2.4401e-12 	1.5e+07
-4.945 	500 	2.16898e-12 	1.5e+07
-4.935 	500 	1.8263e-25 	1.5e+07
-4.925 	500 	1.82719e-25 	1.5e+07
-4.915 	500 	2.16898e-12 	1.5e+07
-4.905 	500 	2.4401e-12 	1.5e+07
-4.895 	500 	8.13349e-12 	1.5e+07
-4.885 	500 	5.96451e-12 	1.5e+07
-4.875 	500 	2.71122e-13 	1.5e+07
-4.865 	500 	3.95473e-25 	1.5e+07
-4.855 	500 	2.26153e-74 	1.5e+07
-4.845 	500 	3.3483e-25 	1.5e+07
-4.835 	500 	8.13367e-13 	1.5e+07
-4.825 	500 	1.08449e-12 	1.5e+07
-4.815 	500 	2.19708e-24 	1.5e+07
-4.805 	500 	4.88008e-12 	1.5e+07
-4.795 	500 	3.79555e-12 	1.5e+07
-4.785 	500 	2.16898e-12 	1.5e+07
-4.775 	500 	2.4401e-12 	1.5e+07
-4.765 	500 	3.52459e-12 	1.5e+07
-4.755 	500 	5.42245e-13 	1.5e+07
-4.745 	500 	3.6526e-25 	1.5e+07
-4.735 	500 	2.88358e-73 	1.5e+07
-4.725 	500 	3.25347e-12 	1.5e+07
-4.715 	500 	2.0049e-34 	1.5e+07
-4.705 	500 	2.71121e-12 	1.5e+07
-4.695 	500 	3.95834e-25 	1.5e+07
-4.685 	500 	1.43687e-11 	1.5e+07
-4.675 	500 	1.30132e-11 	1.5e+07
-4.665 	500 	1.62673e-12 	1.5e+07
-4.655 	500 	1.35561e-12 	1.5e+07
-4.645 	500 	3.95675e-25 	1.5e+07
-4.635 	500 	2.71122e-12 	1.5e+07
-4.625 	500 	3.52459e-12 	1.5e+07
-4.615 	500 	2.71122e-18 	1.5e+07
-4.605 	500 	3.52459e-17 	1.5e+07
-4.595 	500 	1.82264e-35 	1.5e+07
-4.585 	500 	3.52459e-12 	1.5e+07
-4.575 	500 	2.71122e-12 	1.5e+07
-4.565 	500 	1.21753e-25 	1.5e+07
-4.555 	500 	2.43358e-25 	1.5e+07
-4.545 	500 	7.3201e-12 	1.5e+07
-4.535 	500 	5.15115e-12 	1.5e+07
-4.525 	500 	2.16898e-17 	1.5e+07
-4.515 	500 	3.52459e-12 	1.5e+07
-4.505 	500 	8.13367e-13 	1.5e+07
-4.495 	500 	3.35552e-25 	1.5e+07
-4.485 	500 	1.26808e-112 	1.5e+07
-4.475 	500 	6.10953e-81 	1.5e+07
-4.465 	500 	3.65266e-25 	1.5e+07
-4.455 	500 	5.42245e-13 	1.5e+07
-4.445 	500 	8.13367e-13 	1.5e+07
-4.435 	500 	7.29062e-35 	1.5e+07
-4.425 	500 	2.16898e-12 	1.5e+07
-4.415 	500 	1.89786e-12 	1.5e+07
-4.405 	500 	2.12971e-25 	1.5e+07
-4.395 	500 	1.52195e-25 	1.5e+07
-4.385 	500 	2.4401e-12 	1.5e+07
-4.375 	500 	2.71122e-12 	1.5e+07
-4.365 	500 	5.42245e-13 	1.5e+07
-4.355 	500 	0 	1.5e+07
-4.345 	500 	0 	1.5e+07
-4.335 	500 	2.71122e-13 	1.5e+07
-4.325 	500 	5.42245e-13 	1.5e+07
-4.315 	500 	8.94683e-12 	1.5e+07
-4.305 	500 	8.40451e-12 	1.5e+07
-4.295 	500 	1.35561e-12 	1.5e+07
-4.285 	500 	1.89786e-12 	1.5e+07
-4.275 	500 	7.32007e-12 	1.5e+07
-4.265 	500 	4.33777e-12 	1.5e+07
-4.255 	500 	5.69349e-12 	1.5e+07
-4.245 	500 	5.15116e-12 	1.5e+07
-4.235 	500 	3.52459e-12 	1.5e+07
-4.225 	500 	2.71153e-13 	1.5e+07
-4.215 	500 	1.48426e-27 	1.5e+07
-4.205 	500 	2.71122e-13 	1.5e+07
-4.195 	500 	3.52459e-12 	1.5e+07
-4.185 	500 	0 	1.5e+07
-4.175 	500 	2.4401e-12 	1.5e+07
-4.165 	500 	1.35561e-12 	1.5e+07
-4.155 	500 	0 	1.5e+07
-4.145 	500 	1.89786e-12 	1.5e+07
-4.135 	500 	7.86235e-12 	1.5e+07
-4.125 	500 	8.40454e-12 	1.5e+07
-4.115 	500 	3.04517e-25 	1.5e+07
-4.105 	500 	6.08543e-26 	1.5e+07
-4.095 	500 	3.25347e-12 	1.5e+07
-4.085 	500 	3.52459e-12 	1.5e+07
-4.075 	500 	2.71122e-13 	1.5e+07
-4.065 	500 	0 	1.5e+07
-4.055 	500 	1.21766e-24 	1.5e+07
-4.045 	500 	4.60894e-12 	1.5e+07
-4.035 	500 	6.23567e-12 	1.5e+07
-4.025 	500 	3.95966e-25 	1.5e+07
-4.015 	500 	1.89786e-12 	1.5e+07
-4.005 	500 	2.16898e-12 	1.5e+07
-3.995 	500 	7.29062e-35 	1.5e+07
-3.985 	500 	2.71115e-12 	1.5e+07
-3.975 	500 	2.98226e-12 	1.5e+07
-3.965 	500 	2.71122e-13 	1.5e+07
-3.955 	500 	7.82616e-28 	1.5e+07
-3.945 	500 	3.52459e-12 	1.5e+07
-3.935 	500 	2.98235e-12 	1.5e+07
-3.925 	500 	6.23552e-12 	1.5e+07
-3.915 	500 	4.6089e-12 	1.5e+07
-3.905 	500 	1.35561e-12 	1.5e+07
-3.895 	500 	3.25347e-12 	1.5e+07
-3.885 	500 	1.89786e-12 	1.5e+07
-3.875 	500 	1.35561e-12 	1.5e+07
-3.865 	500 	1.08449e-12 	1.5e+07
-3.855 	500 	9.12771e-26 	1.5e+07
-3.845 	500 	2.98235e-12 	1.5e+07
-3.835 	500 	3.25347e-12 	1.5e+07
-3.825 	500 	3.57149e-24 	1.5e+07
-3.815 	500 	8.13444e-13 	1.5e+07
-3.805 	500 	4.06678e-12 	1.5e+07
-3.795 	500 	8.13367e-13 	1.5e+07
-3.785 	500 	1.08449e-12 	1.5e+07
-3.775 	500 	8.43385e-113 	1.5e+07
-3.765 	500 	2.1299e-25 	1.5e+07
-3.755 	500 	1.89786e-12 	1.5e+07
-3.745 	500 	2.16898e-12 	1.5e+07
-3.735 	500 	2.44011e-12 	1.5e+07
-3.725 	500 	3.52457e-12 	1.5e+07
-3.715 	500 	5.42245e-13 	1.5e+07
-3.705 	500 	6.40092e-25 	1.5e+07
-3.695 	500 	1.05735e-11 	1.5e+07
-3.685 	500 	9.76015e-12 	1.5e+07
-3.675 	500 	5.49323e-25 	1.5e+07
-3.665 	500 	0 	1.5e+07
-3.655 	500 	1.08449e-12 	1.5e+07
-3.645 	500 	5.69346e-12 	1.5e+07
-3.635 	500 	7.3202e-12 	1.5e+07
-3.625 	500 	3.52455e-12 	1.5e+07
-3.615 	500 	3.96006e-25 	1.5e+07
-3.605 	500 	2.4401e-12 	1.5e+07
-3.595 	500 	2.71122e-12 	1.5e+07
-3.585 	500 	2.34643e-73 	1.5e+07
-3.575 	500 	3.04438e-26 	1.5e+07
-3.565 	500 	3.52459e-12 	1.5e+07
-3.555 	500 	3.25344e-12 	1.5e+07
-3.545 	500 	1.08467e-12 	1.5e+07
-3.535 	500 	4.33792e-12 	1.5e+07
-3.525 	500 	4.2024e-12 	1.5e+07
-3.515 	500 	1.35561e-12 	1.5e+07
-3.505 	500 	1.62673e-12 	1.5e+07
-3.495 	500 	1.62673e-12 	1.5e+07
-3.485 	500 	1.35561e-12 	1.5e+07
-3.475 	500 	1.08448e-12 	1.5e+07
-3.465 	500 	1.62668e-12 	1.5e+07
-3.455 	500 	5.55768e-12 	1.5e+07
-3.445 	500 	5.28682e-12 	1.5e+07
-3.435 	500 	1.76219e-12 	1.5e+07
-3.425 	500 	3.52458e-12 	1.5e+07
-3.415 	500 	2.98235e-12 	1.5e+07
-3.405 	500 	9.14183e-26 	1.5e+07
-3.395 	500 	2.4401e-12 	1.5e+07
-3.385 	500 	2.16898e-12 	1.5e+07
-3.375 	500 	5.15117e-12 	1.5e+07
-3.365 	500 	7.32023e-12 	1.5e+07
-3.355 	500 	2.16898e-12 	1.5e+07
-3.345 	500 	1.08449e-12 	1.5e+07
-3.335 	500 	8.13367e-13 	1.5e+07
-3.325 	500 	3.35145e-25 	1.5e+07
-3.315 	500 	3.04248e-26 	1.5e+07
-3.305 	500 	3.52459e-12 	1.5e+07
-3.295 	500 	2.0335e-12 	1.5e+07
-3.285 	500 	3.52457e-12 	1.5e+07
-3.275 	500 	3.52452e-12 	1.5e+07
-3.265 	500 	1.22998e-25 	1.5e+07
-3.255 	500 	3.52459e-12 	1.5e+07
-3.245 	500 	1.89786e-12 	1.5e+07
-3.235 	500 	2.13426e-25 	1.5e+07
-3.225 	500 	1.3556e-12 	1.5e+07
-3.215 	500 	1.08448e-12 	1.5e+07
-3.205 	500 	2.7112e-12 	1.5e+07
-3.195 	500 	2.98232e-12 	1.5e+07
-3.185 	500 	2.71122e-13 	1.5e+07
-3.175 	500 	5.28668e-12 	1.5e+07
-3.165 	500 	3.38894e-12 	1.5e+07
-3.155 	500 	2.98226e-12 	1.5e+07
-3.145 	500 	5.42237e-12 	1.5e+07
-3.135 	500 	2.4401e-12 	1.5e+07
-3.125 	500 	1.35561e-12 	1.5e+07
-3.115 	500 	5.42247e-12 	1.5e+07
-3.105 	500 	8.13497e-13 	1.5e+07
-3.095 	500 	2.03334e-12 	1.5e+07
-3.085 	500 	1.62667e-12 	1.5e+07
-3.075 	500 	2.98238e-12 	1.5e+07
-3.065 	500 	2.98235e-12 	1.5e+07
-3.055 	500 	2.19144e-74 	1.5e+07
-3.045 	500 	3.96524e-25 	1.5e+07
-3.035 	500 	2.71122e-13 	1.5e+07
-3.025 	500 	7.04911e-12 	1.5e+07
-3.015 	500 	3.52454e-12 	1.5e+07
-3.005 	500 	4.88013e-12 	1.5e+07
-2.995 	500 	1.45812e-39 	1.5e+07
-2.985 	500 	4.33786e-12 	1.5e+07
-2.975 	500 	9.48872e-13 	1.5e+07
-2.965 	500 	3.52453e-12 	1.5e+07
-2.955 	500 	4.88004e-12 	1.5e+07
-2.945 	500 	2.71115e-12 	1.5e+07
-2.935 	500 	2.36945e-34 	1.5e+07
-2.925 	500 	3.04429e-26 	1.5e+07
-2.915 	500 	3.52456e-12 	1.5e+07
-2.905 	500 	3.25347e-17 	1.5e+07
-2.895 	500 	2.3046e-12 	1.5e+07
-2.885 	500 	7.04885e-12 	1.5e+07
-2.875 	500 	7.32005e-12 	1.5e+07
-2.865 	500 	5.15109e-12 	1.5e+07
-2.855 	500 	4.33786e-12 	1.5e+07
-2.845 	500 	2.13195e-25 	1.5e+07
-2.835 	500 	1.35557e-12 	1.5e+07
-2.825 	500 	2.16901e-12 	1.5e+07
-2.815 	500 	7.18459e-12 	1.5e+07
-2.805 	500 	6.50664e-12 	1.5e+07
-2.795 	500 	3.65767e-25 	1.5e+07
-2.785 	500 	3.37496e-38 	1.5e+07
-2.775 	500 	3.25347e-12 	1.5e+07
-2.765 	500 	2.98235e-12 	1.5e+07
-2.755 	500 	3.52459e-12 	1.5e+07
-2.745 	500 	2.73777e-25 	1.5e+07
-2.735 	500 	1.35561e-12 	1.5e+07
-2.725 	500 	3.52459e-12 	1.5e+07
-2.715 	500 	3.38903e-12 	1.5e+07
-2.705 	500 	1.52365e-25 	1.5e+07
-2.695 	500 	2.4401e-12 	1.5e+07
-2.685 	500 	2.71122e-12 	1.5e+07
-2.675 	500 	5.42245e-13 	1.5e+07
-2.665 	500 	2.03342e-12 	1.5e+07
-2.655 	500 	3.52459e-12 	1.5e+07
-2.645 	500 	3.0453e-26 	1.5e+07
-2.635 	500 	0 	1.5e+07
-2.625 	500 	1.64037e-34 	1.5e+07
-2.615 	500 	1.08463e-12 	1.5e+07
-2.605 	500 	6.23563e-12 	1.5e+07
-2.595 	500 	3.25347e-12 	1.5e+07
-2.585 	500 	7.04902e-12 	1.5e+07
-2.575 	500 	3.11774e-12 	1.5e+07
-2.565 	500 	2.4401e-12 	1.5e+07
-2.555 	500 	8.13367e-13 	1.5e+07
-2.545 	500 	5.42245e-13 	1.5e+07
-2.535 	500 	2.71122e-13 	1.5e+07
-2.525 	500 	5.28668e-12 	1.5e+07
-2.515 	500 	3.38894e-12 	1.5e+07
-2.505 	500 	5.42245e-13 	1.5e+07
-2.495 	500 	8.13367e-13 	1.5e+07
-2.485 	500 	3.28073e-34 	1.5e+07
-2.475 	500 	0 	1.5e+07
-2.465 	500 	1.27586e-39 	1.5e+07
-2.455 	500 	1.62673e-12 	1.5e+07
-2.445 	500 	2.71122e-12 	1.5e+07
-2.435 	500 	4.20221e-12 	1.5e+07
-2.425 	500 	6.23554e-12 	1.5e+07
-2.415 	500 	5.42245e-13 	1.5e+07
-2.405 	500 	2.71122e-13 	1.5e+07
-2.395 	500 	3.96426e-25 	1.5e+07
-2.385 	500 	1.82265e-35 	1.5e+07
-2.375 	500 	3.64531e-35 	1.5e+07
-2.365 	500 	0 	1.5e+07
-2.355 	500 	2.05251e-73 	1.5e+07
-2.345 	500 	2.16898e-12 	1.5e+07
-2.335 	500 	1.89786e-12 	1.5e+07
-2.325 	500 	1.62673e-12 	1.5e+07
-2.315 	500 	1.35561e-12 	1.5e+07
-2.305 	500 	2.74449e-25 	1.5e+07
-2.295 	500 	9.13188e-26 	1.5e+07
-2.285 	500 	2.98235e-12 	1.5e+07
-2.275 	500 	3.25347e-12 	1.5e+07
-2.265 	500 	3.52459e-12 	1.5e+07
-2.255 	500 	3.66014e-12 	1.5e+07
-2.245 	500 	8.13335e-13 	1.5e+07
-2.235 	500 	8.13367e-13 	1.5e+07
-2.225 	500 	1.08449e-12 	1.5e+07
-2.215 	500 	4.19208e-34 	1.5e+07
-2.205 	500 	0 	1.5e+07
-2.195 	500 	1.27586e-34 	1.5e+07
-2.185 	500 	2.16898e-12 	1.5e+07
-2.175 	500 	4.8802e-12 	1.5e+07
-2.165 	500 	2.71122e-12 	1.5e+07
-2.155 	500 	6.09435e-26 	1.5e+07
-2.145 	500 	3.25347e-12 	1.5e+07
-2.135 	500 	-2.9347e-28 	1.5e+07
-2.125 	500 	3.66014e-12 	1.5e+07
-2.115 	500 	7.31997e-12 	1.5e+07
-2.105 	500 	4.47339e-12 	1.5e+07
-2.095 	500 	2.4401e-12 	1.5e+07
-2.085 	500 	6.10026e-12 	1.5e+07
-2.075 	500 	1.89786e-12 	1.5e+07
-2.065 	500 	2.13171e-25 	1.5e+07
-2.055 	500 	1.35561e-12 	1.5e+07
-2.045 	500 	1.08449e-12 	1.5e+07
-2.035 	500 	3.04262e-25 	1.5e+07
-2.025 	500 	5.42245e-13 	1.5e+07
-2.015 	500 	2.71122e-13 	1.5e+07
-2.005 	500 	3.52456e-12 	1.5e+07
-1.995 	500 	2.71122e-18 	1.5e+07
-1.985 	500 	1.78929e-11 	1.5e+07
-1.975 	500 	1.43685e-11 	1.5e+07
-1.965 	500 	4.88015e-12 	1.5e+07
-1.955 	500 	7.8624e-12 	1.5e+07
-1.945 	500 	3.52459e-17 	1.5e+07
-1.935 	500 	3.52459e-17 	1.5e+07
-1.925 	500 	1.46402e-11 	1.5e+07
-1.915 	500 	4.88025e-12 	1.5e+07
-1.905 	500 	6.77761e-12 	1.5e+07
-1.895 	500 	3.52453e-12 	1.5e+07
-1.885 	500 	3.38896e-12 	1.5e+07
-1.875 	500 	1.76219e-12 	1.5e+07
-1.865 	500 	9.13605e-24 	1.5e+07
-1.855 	500 	1.16577e-11 	1.5e+07
-1.845 	500 	3.52438e-12 	1.5e+07
-1.835 	500 	8.94658e-12 	1.5e+07
-1.825 	500 	8.94658e-12 	1.5e+07
-1.815 	500 	9.75978e-12 	1.5e+07
-1.805 	500 	1.6267e-12 	1.5e+07
-1.795 	500 	9.48888e-12 	1.5e+07
-1.785 	500 	1.03022e-11 	1.5e+07
-1.775 	500 	5.42234e-12 	1.5e+07
-1.765 	500 	5.42245e-18 	1.5e+07
-1.755 	500 	1.65375e-11 	1.5e+07
-1.745 	500 	2.11462e-11 	1.5e+07
-1.735 	500 	6.50678e-12 	1.5e+07
-1.725 	500 	7.5916e-12 	1.5e+07
-1.715 	500 	1.30134e-11 	1.5e+07
-1.705 	500 	5.42222e-12 	1.5e+07
-1.695 	500 	4.8799e-12 	1.5e+07
-1.685 	500 	1.27421e-11 	1.5e+07
-1.675 	500 	3.52438e-12 	1.5e+07
-1.665 	500 	8.81096e-12 	1.5e+07
-1.655 	500 	3.38907e-12 	1.5e+07
-1.645 	500 	2.44006e-12 	1.5e+07
-1.635 	500 	1.08446e-12 	1.5e+07
-1.625 	500 	3.25344e-12 	1.5e+07
-1.615 	500 	3.52459e-17 	1.5e+07
-1.605 	500 	3.52459e-17 	1.5e+07
-1.595 	500 	1.08454e-12 	1.5e+07
-1.585 	500 	8.13351e-13 	1.5e+07
-1.575 	500 	1.08447e-12 	1.5e+07
-1.565 	500 	7.04889e-12 	1.5e+07
-1.555 	500 	1.13871e-16 	1.5e+07
-1.545 	500 	3.2534e-12 	1.5e+07
-1.535 	500 	3.52459e-17 	1.5e+07
-1.525 	500 	3.28073e-34 	1.5e+07
-1.515 	500 	0 	1.5e+07
-1.505 	500 	7.32016e-12 	1.5e+07
-1.495 	500 	5.6935e-12 	1.5e+07
-1.485 	500 	4.51367e-25 	1.5e+07
-1.475 	500 	3.25341e-12 	1.5e+07
-1.465 	500 	7.45563e-12 	1.5e+07
-1.455 	500 	5.82905e-12 	1.5e+07
-1.445 	500 	2.16896e-12 	1.5e+07
-1.435 	500 	2.71121e-12 	1.5e+07
-1.425 	500 	3.2534e-12 	1.5e+07
-1.415 	500 	8.13318e-13 	1.5e+07
-1.405 	500 	1.76227e-12 	1.5e+07
-1.395 	500 	5.82896e-12 	1.5e+07
-1.385 	500 	1.51821e-11 	1.5e+07
-1.375 	500 	8.94622e-12 	1.5e+07
-1.365 	500 	7.86237e-12 	1.5e+07
-1.355 	500 	1.40984e-16 	1.5e+07
-1.345 	500 	3.25328e-12 	1.5e+07
-1.335 	500 	1.46395e-11 	1.5e+07
-1.325 	500 	1.70796e-11 	1.5e+07
-1.315 	500 	1.43688e-11 	1.5e+07
-1.305 	500 	1.68088e-11 	1.5e+07
-1.295 	500 	4.60907e-12 	1.5e+07
-1.285 	500 	9.48878e-12 	1.5e+07
-1.275 	500 	1.49111e-11 	1.5e+07
-1.265 	500 	4.60897e-12 	1.5e+07
-1.255 	500 	4.06662e-12 	1.5e+07
-1.245 	500 	2.16897e-12 	1.5e+07
-1.235 	500 	3.2534e-12 	1.5e+07
-1.225 	500 	3.00818e-30 	1.5e+07
-1.215 	500 	2.71122e-18 	1.5e+07
-1.205 	500 	2.57573e-12 	1.5e+07
-1.195 	500 	5.28673e-12 	1.5e+07
-1.185 	500 	1.03023e-11 	1.5e+07
-1.175 	500 	4.33787e-12 	1.5e+07
-1.165 	500 	3.52459e-17 	1.5e+07
-1.155 	500 	1.27583e-34 	1.5e+07
-1.145 	500 	2.71122e-12 	1.5e+07
-1.135 	500 	1.11154e-11 	1.5e+07
-1.125 	500 	7.59112e-12 	1.5e+07
-1.115 	500 	4.06679e-12 	1.5e+07
-1.105 	500 	3.79558e-12 	1.5e+07
-1.095 	500 	7.04908e-12 	1.5e+07
-1.085 	500 	6.50681e-12 	1.5e+07
-1.075 	500 	3.52459e-17 	1.5e+07
-1.065 	500 	1.62683e-12 	1.5e+07
-1.055 	500 	2.16895e-12 	1.5e+07
-1.045 	500 	2.16894e-12 	1.5e+07
-1.035 	500 	6.50647e-12 	1.5e+07
-1.025 	500 	1.43688e-11 	1.5e+07
-1.015 	500 	1.35558e-12 	1.5e+07
-1.005 	500 	8.94681e-12 	1.5e+07
-0.995 	500 	5.96454e-12 	1.5e+07
-0.985 	500 	6.50684e-12 	1.5e+07
-0.975 	500 	3.79568e-12 	1.5e+07
-0.965 	500 	3.52452e-12 	1.5e+07
-0.955 	500 	2.71117e-13 	1.5e+07
-0.945 	500 	2.98227e-12 	1.5e+07
-0.935 	500 	8.13371e-13 	1.5e+07
-0.925 	500 	3.52449e-12 	1.5e+07
-0.915 	500 	2.71121e-12 	1.5e+07
-0.905 	500 	3.2534e-12 	1.5e+07
-0.895 	500 	1.62669e-12 	1.5e+07
-0.885 	500 	2.16892e-12 	1.5e+07
-0.875 	500 	1.08449e-17 	1.5e+07
-0.865 	500 	8.13378e-13 	1.5e+07
-0.855 	500 	2.98233e-12 	1.5e+07
-0.845 	500 	2.71122e-18 	1.5e+07
-0.835 	500 	3.52459e-17 	1.5e+07
-0.825 	500 	2.71153e-13 	1.5e+07
-0.815 	500 	5.42234e-13 	1.5e+07
-0.805 	500 	2.71112e-12 	1.5e+07
-0.795 	500 	2.44004e-12 	1.5e+07
-0.785 	500 	2.16898e-17 	1.5e+07
-0.775 	500 	1.62673e-17 	1.5e+07
-0.765 	500 	6.77788e-12 	1.5e+07
-0.755 	500 	1.03023e-11 	1.5e+07
-0.745 	500 	7.86211e-12 	1.5e+07
-0.735 	500 	7.04908e-12 	1.5e+07
-0.725 	500 	4.06679e-12 	1.5e+07
-0.715 	500 	3.52459e-17 	1.5e+07
-0.705 	500 	7.04918e-17 	1.5e+07
-0.695 	500 	6.50682e-12 	1.5e+07
-0.685 	500 	3.52459e-17 	1.5e+07
-0.675 	500 	8.13405e-13 	1.5e+07
-0.665 	500 	3.52453e-12 	1.5e+07
-0.655 	500 	7.59091e-12 	1.5e+07
-0.645 	500 	1.16576e-11 	1.5e+07
-0.635 	500 	3.52452e-12 	1.5e+07
-0.625 	500 	1.35558e-12 	1.5e+07
-0.615 	500 	5.9646e-12 	1.5e+07
-0.605 	500 	6.23574e-12 	1.5e+07
-0.595 	500 	1.30139e-16 	1.5e+07
-0.585 	500 	3.25347e-17 	1.5e+07
-0.575 	500 	7.04908e-12 	1.5e+07
-0.565 	500 	6.50681e-12 	1.5e+07
-0.555 	500 	5.4234e-13 	1.5e+07
-0.545 	500 	8.13351e-13 	1.5e+07
-0.535 	500 	2.44005e-12 	1.5e+07
-0.525 	500 	1.90614e-12 	1.5e+07
-0.515 	500 	2.73103e-10 	1.5e+07
-0.505 	500 	3.2147e-09 	1.5e+07
-0.495 	500 	2.2941e-08 	1.5e+07
-0.485 	500 	1.44832e-07 	1.5e+07
-0.475 	500 	8.5202e-07 	1.5e+07
-0.465 	500 	4.7011e-06 	1.5e+07
-0.455 	500 	2.43181e-05 	1.5e+07
-0.445 	500 	0.000117758 	1.5e+07
-0.435 	500 	0.000560956 	1.5e+07
-0.425 	499.999 	0.00248202 	1.49999e+07
-0.415 	499.997 	0.0101587 	1.49995e+07
-0.405 	499.99 	0.038252 	1.4998e+07
-0.395 	499.965 	0.130967 	1.4993e+07
-0.385 	499.892 	0.397315 	1.49788e+07
-0.375 	499.711 	1.06166 	1.49434e+07
-0.365 	499.322 	2.48954 	1.48675e+07
-0.355 	498.608 	5.10348 	1.47292e+07
-0.345 	497.498 	9.17667 	1.45162e+07
-0.335 	496.007 	14.6613 	1.42341e+07
-0.325 	494.226 	21.2392 	1.39032e+07
-0.315 	492.258 	28.5349 	1.35449e+07
-0.305 	490.177 	36.2733 	1.31749e+07
-0.295 	488.032 	44.2778 	1.28022e+07
-0.285 	485.845 	52.4584 	1.24316e+07
-0.275 	483.631 	60.7626 	1.20657e+07
-0.265 	481.4 	69.1573 	1.17059e+07
-0.255 	479.156 	77.6207 	1.13533e+07
-0.245 	476.904 	86.1373 	1.10085e+07
-0.235 	474.646 	94.6965 	1.06716e+07
-0.225 	472.386 	103.29 	1.03431e+07
-0.215 	470.124 	111.911 	1.00229e+07
-0.205 	467.863 	120.556 	9.71102e+06
-0.195 	465.605 	129.222 	9.4075e+06
-0.185 	463.359 	137.905 	9.11233e+06
-0.175 	461.14 	146.602 	8.82547e+06
-0.165 	458.951 	155.305 	8.54647e+06
-0.155 	456.684 	164.013 	8.27479e+06
-0.145 	454.264 	172.745 	8.01068e+06
-0.135 	452.074 	181.49 	7.75483e+06
-0.125 	449.92 	190.221 	7.50605e+06
-0.115 	447.516 	198.98 	7.26434e+06
-0.105 	445.504 	207.729 	7.02992e+06
-0.095 	443.029 	216.496 	6.80205e+06
-0.085 	441.08 	225.257 	6.58109e+06
-0.075 	438.604 	234.034 	6.3665e+06
-0.065 	436.584 	242.804 	6.15829e+06
-0.055 	434.362 	251.589 	5.95631e+06
-0.045 	431.953 	260.371 	5.76041e+06
-0.035 	430.12 	269.161 	5.57036e+06
-0.025 	427.663 	277.95 	5.38611e+06
-0.015 	425.423 	286.748 	5.20733e+06
-0.005 	423.597 	295.549 	5.03388e+06
0.005 	421.198 	304.344 	4.86586e+06
0.015 	418.827 	313.155 	4.70292e+06
0.025 	417.014 	321.973 	4.54476e+06
0.035 	414.967 	330.776 	4.39157e+06
0.045 	412.444 	339.583 	4.24325e+06
0.055 	410.21 	348.417 	4.09937e+06
0.065 	408.508 	357.254 	3.9597e+06
0.075 	406.531 	366.063 	3.82453e+06
0.085 	404.02 	374.877 	3.69391e+06
0.095 	401.668 	383.721 	3.56718e+06
0.105 	399.718 	392.58 	3.44431e+06
0.115 	398.087 	401.434 	3.32515e+06
0.125 	396.104 	410.248 	3.20987e+06
0.135 	393.582 	419.072 	3.09859e+06
0.145 	391.17 	427.936 	2.99063e+06
0.155 	389.123 	436.821 	2.88595e+06
0.165 	387.442 	445.707 	2.78444e+06
0.175 	385.747 	454.568 	2.68629e+06
0.185 	383.838 	463.422 	2.59143e+06
0.195 	381.643 	472.259 	2.49954e+06
0.205 	378.932 	481.093 	2.41089e+06
0.215 	376.419 	490.025 	2.32531e+06
0.225 	374.884 	499.001 	2.24163e+06
0.235 	373.366 	507.88 	2.16065e+06
0.245 	371.402 	516.76 	2.08317e+06
0.255 	369.812 	525.721 	2.00795e+06
0.265 	368.379 	534.619 	1.93459e+06
0.275 	366.039 	543.41 	1.86422e+06
0.285 	362.982 	552.268 	1.79681e+06
0.295 	360.423 	561.277 	1.73121e+06
0.305 	358.669 	570.308 	1.66699e+06
0.315 	356.949 	579.248 	1.60495e+06
0.325 	354.915 	588.178 	1.54559e+06
0.335 	353.193 	597.223 	1.48839e+06
0.345 	352.341 	606.347 	1.43267e+06
0.355 	351.862 	615.378 	1.3784e+06
0.365 	350.714 	624.223 	1.32627e+06
0.375 	348.328 	632.982 	1.27664e+06
0.385 	345.115 	641.831 	1.22913e+06
0.395 	342.076 	650.858 	1.183e+06
0.405 	339.742 	659.978 	1.13774e+06
0.415 	337.722 	669.041 	1.09362e+06
0.425 	335.405 	678.013 	1.05125e+06
0.435 	332.752 	687.008 	1.01075e+06
0.445 	330.413 	696.166 	971863
0.455 	329.081 	705.489 	933828
0.465 	328.874 	714.907 	897114
0.475 	329.217 	724.277 	861163
0.485 	329.089 	733.046 	825314
0.495 	327.319 	741.771 	794324
0.505 	325.122 	750.952 	763972
0.515 	324.44 	760.472 	734343
0.525 	324.969 	770.203 	704764
0.535 	325.709 	779.373 	674457
0.545 	324.458 	787.331 	645945
0.555 	318.583 	795.69 	623004
0.565 	312.662 	804.905 	599703
0.575 	309.784 	814.713 	575718
0.585 	309.118 	824.583 	551138
0.595 	308.602 	833.948 	526814
0.605 	306.632 	842.835 	504551
0.615 	303.043 	851.562 	483657
0.625 	298.144 	860.304 	463797
0.635 	292.577 	869.392 	445436
0.645 	288.778 	879.025 	427420
0.655 	288.868 	890.177 	411458
0.665 	291.94 	901.166 	389338
0.675 	294.578 	910.636 	369588
0.685 	293.788 	917.893 	350277
0.695 	285.987 	925.186 	338858
0.705 	276.39 	934.217 	326714
0.715 	275.773 	946.632 	318327
0.725 	282.566 	960.991 	299610
0.735 	289.528 	973.37 	282210
0.745 	293.984 	983.06 	264808
0.755 	296.46 	990.759 	251218
0.765 	294.549 	995.893 	238280
0.775 	280.277 	1001.95 	231852
0.785 	263.194 	1010.42 	224492
0.795 	258.32 	1022.09 	218228
0.805 	264.858 	1037.76 	209406
0.815 	274.639 	1052.35 	193936
0.825 	282.779 	1065.41 	183462
0.835 	291.013 	1077.31 	173227
0.845 	300.978 	1088.72 	165159
0.855 	307.658 	1098.81 	155763
0.865 	312.184 	1106.56 	147997
0.875 	312.616 	1111.96 	139796
0.885 	305.47 	1115.77 	134784
0.895 	279.752 	1121.74 	131456
0.905 	256.655 	1130.06 	127745
0.915 	247.731 	1141.27 	124219
0.925 	255.564 	1157.72 	121732
0.935 	283.66 	1177.06 	113271
0.945 	296.25 	1191.24 	102380
0.955 	307.678 	1202.88 	97717.7
0.965 	318.22 	1214.99 	93566.7
0.975 	328.671 	1226.17 	89027.8
0.985 	342.102 	1237.33 	85709.2
0.995 	351.652 	1247.92 	81668
1.005 	357.756 	1256.18 	77686.1
1.015 	360.123 	1262.57 	74081.4
1.025 	356.835 	1266.3 	70747.8
1.035 	334.542 	1270.92 	69263.5
1.045 	301.023 	1277.71 	67608.7
1.055 	276.34 	1286.63 	65855.7
1.065 	267.492 	1298.28 	64197.9
1.075 	277.524 	1314.95 	63245.8
1.085 	320.022 	1335.78 	59651.5
1.095 	336.193 	1351.11 	53030.4
1.105 	348.33 	1361.86 	50623.5
1.115 	360.357 	1374.32 	49338.1
1.125 	366.057 	1385.72 	46835.5
1.135 	378.101 	1396.52 	45455.2
1.145 	391.04 	1408.95 	44165.2
1.155 	400.709 	1420.35 	42110.1
1.165 	415.572 	1430.9 	40645.9
1.175 	431.038 	1442.12 	39368.7
1.185 	440.695 	1452.16 	37709.3
1.195 	447.72 	1460.45 	36338.4
1.205 	449.685 	1467.12 	34897.2
1.215 	444.6 	1471.51 	33651.5
1.225 	417.097 	1476.77 	33018.2
1.235 	376.236 	1483.48 	32290.3
1.245 	338.933 	1491.71 	31569.5
1.255 	314.817 	1501.75 	30800.5
1.265 	307.527 	1514.15 	30105.9
1.275 	322.018 	1531.4 	29765.8
1.285 	388.673 	1553.86 	28469.2
1.295 	419.22 	1571.34 	25305.2
1.305 	440.891 	1583.54 	24261.3
1.315 	459.282 	1596.57 	23605.8
1.325 	471.849 	1608.47 	22619
1.335 	488.994 	1619.27 	21913.3
1.345 	507.237 	1630.66 	21322.1
1.355 	518.468 	1641.03 	20518
1.365 	526.817 	1649.53 	19820.3
1.375 	530.29 	1656.86 	19148.6
1.385 	527.287 	1661.69 	18457.5
1.395 	503.975 	1667.09 	18150.8
1.405 	463.981 	1673.9 	17794.2
1.415 	423.71 	1682.07 	17450.8
1.425 	393.977 	1691.85 	17108
1.435 	381.829 	1703.51 	16737.4
1.445 	388.583 	1719.05 	16565.3
1.455 	444.612 	1738.98 	16021.5
1.465 	482.673 	1757.14 	14816.1
1.475 	492.816 	1770.21 	14108.6
1.485 	510.552 	1780.71 	13302.9
1.495 	532.038 	1792.06 	13209.9
1.505 	548.81 	1805.9 	13055.9
1.515 	563.348 	1819.12 	12505.2
1.525 	583.302 	1830.4 	12169.3
1.535 	603.925 	1842.8 	11908.5
1.545 	617.056 	1854.12 	11496.9
1.555 	627.808 	1863.59 	11151.9
1.565 	632.687 	1871.72 	10808.7
1.575 	629.697 	1877.14 	10431.5
1.585 	605.055 	1882.27 	10258.1
1.595 	552.235 	1888.72 	10078.4
1.605 	497.747 	1896.33 	9896.17
1.615 	453.41 	1905.28 	9704.02
1.625 	423.154 	1915.71 	9501.63
1.635 	408.102 	1927.64 	9246.39
1.645 	409.939 	1942.98 	9177.79
1.655 	481.897 	1963.9 	9022.21
1.665 	576.121 	1987.47 	8363.59
1.675 	598.434 	2002.08 	7744.04
1.685 	599.135 	2012.53 	7526.54
1.695 	598.627 	2023.75 	7433.43
1.705 	612.711 	2037.36 	7268.08
1.715 	630.718 	2049.47 	6896.37
1.725 	642.279 	2059.1 	6660.74
1.735 	650.117 	2068.93 	6544.44
1.745 	660.127 	2080.11 	6446.23
1.755 	670.656 	2091.76 	6283.09
1.765 	674.582 	2100.28 	5932.49
1.775 	685.422 	2104.71 	5618.06
1.785 	728.486 	2112.96 	5606.83
1.795 	768.041 	2125.47 	5607.68
1.805 	801.614 	2140.23 	5609.71
1.815 	830.846 	2156.01 	5608.37
1.825 	854.79 	2171.92 	5599.01
1.835 	866.493 	2186.67 	5558.21
1.845 	860.386 	2197.51 	5429.2
1.855 	794.027 	2203.52 	5257.05
1.865 	698.394 	2206.92 	5061.69
1.875 	613.311 	2211.2 	4913.05
1.885 	546.017 	2217.9 	4795.45
1.895 	498.817 	2226.98 	4694.22
1.905 	472.12 	2238.14 	4590.81
1.915 	466.059 	2251.61 	4519.57
1.925 	498.99 	2269.54 	4477.85
1.935 	626.655 	2292.65 	4309.81
1.945 	676.724 	2311.69 	3945.64
1.955 	693.292 	2326.22 	3802.88
1.965 	707.671 	2339.89 	3673.13
1.975 	720.841 	2351.86 	3524.77
1.985 	730.743 	2359.21 	3295.73
1.995 	757.381 	2366.88 	3262.02
2.005 	778.527 	2378.65 	3261.61
2.015 	793.429 	2392.49 	3260.84
2.025 	803.592 	2407.23 	3255.37
2.035 	811.354 	2422.41 	3244.33
2.045 	820.934 	2437.72 	3209.87
2.055 	832.434 	2451.52 	3113.78
2.065 	838.002 	2459.58 	2871.35
2.075 	867.161 	2467.85 	2816.5
2.085 	901.8 	2480.24 	2810.12
2.095 	934.216 	2494.13 	2784.82
2.105 	960.214 	2507.63 	2732.17
2.115 	980.668 	2519.56 	2661.95
2.125 	996.454 	2528.57 	2563.52
2.135 	1005.76 	2531.5 	2400.66
2.145 	1024.9 	2528.09 	2266.43
2.155 	1060.65 	2529.76 	2251.09
2.165 	1084.65 	2537.47 	2251.12
2.175 	1091.85 	2548.37 	2250.91
2.185 	1091.39 	2560.93 	2249.65
2.195 	1058.4 	2574.32 	2247.77
2.205 	931.302 	2587.57 	2245.47
2.215 	807.276 	2600.19 	2240.5
2.225 	704.545 	2612.49 	2233.74
2.235 	615.053 	2624.92 	2225.15
2.245 	551.594 	2638.15 	2211.47
2.255 	530.369 	2653.63 	2204.08
2.265 	543.697 	2673.08 	2192.99
2.275 	704.316 	2698.95 	2144.31
2.285 	871.573 	2728.53 	1975.66
2.295 	885.887 	2739.65 	1684.25
2.305 	883.75 	2742.75 	1598.81
2.315 	887.612 	2749.55 	1581.58
2.325 	918.302 	2760.52 	1558.7
2.335 	956.931 	2773.62 	1544.13
2.345 	981.03 	2788.17 	1527.67
2.355 	1010.44 	2802.82 	1502.63
2.365 	1040.2 	2816.55 	1467.73
2.375 	1057.83 	2828.68 	1429.43
2.385 	1073.48 	2839.59 	1396.5
2.395 	1097.84 	2851.32 	1374.53
2.405 	1126.95 	2863.65 	1355.2
2.415 	1150.27 	2873.22 	1305.22
2.425 	1192.55 	2879.43 	1274.09
2.435 	1248.23 	2889.48 	1273.35
2.445 	1295.75 	2902.87 	1272.4
2.455 	1321.45 	2918.25 	1268.78
2.465 	1329.37 	2934.45 	1257.76
2.475 	1342.65 	2950.39 	1234.12
2.485 	1347.56 	2961.24 	1177.8
2.495 	1326.92 	2962.58 	1114.99
2.505 	1242.12 	2960.24 	1076.89
2.515 	1097 	2959.53 	1051.49
2.525 	937.391 	2962.77 	1033.91
2.535 	808.619 	2969.82 	1021.49
2.545 	729.341 	2979.66 	1009.45
2.555 	691.948 	2991.55 	996.75
2.565 	680.703 	3004.89 	982.952
2.575 	687.732 	3020.55 	976.313
2.585 	767.291 	3037.82 	951.821
2.595 	889.415 	3054.4 	910.843
2.605 	1011.07 	3073.4 	911.352
2.615 	1095.48 	3095.13 	911.345
2.625 	1135.22 	3117.6 	910.019
2.635 	1146.57 	3139.47 	909.362
2.645 	1149.14 	3160.27 	907.012
2.655 	1157.22 	3179.68 	901.813
2.665 	1165.3 	3196.45 	879.141
2.675 	1155.03 	3206.1 	814.664
2.685 	1143.87 	3206.1 	734.722
2.695 	1144.05 	3201.99 	678.58
2.705 	1186.61 	3202.51 	667.708
2.715 	1236.86 	3210.45 	667.68
2.725 	1265.96 	3222.62 	667.842
2.735 	1278.41 	3236.88 	667.74
2.745 	1300.9 	3252.15 	667.541
2.755 	1348.86 	3268.06 	666.998
2.765 	1415.72 	3284.38 	665.156
2.775 	1473.6 	3300.65 	663.418
2.785 	1505.07 	3315.77 	656.463
2.795 	1515.38 	3327.44 	637.848
2.805 	1514.76 	3332.27 	594.205
2.815 	1569.25 	3338.13 	583.641
2.825 	1648.6 	3349.51 	583.692
2.835 	1710.75 	3363.46 	583.692
2.845 	1759.17 	3378.53 	583.202
2.855 	1804.17 	3393.33 	580.174
2.865 	1821.72 	3403.2 	567.381
2.875 	1767.66 	3401.5 	539.889
2.885 	1508.43 	3396.66 	526.173
2.895 	1215.7 	3394.99 	514.01
2.905 	981.601 	3398.07 	505.988
2.915 	832.217 	3404.92 	500.505
2.925 	757.496 	3414.27 	495.407
2.935 	731.331 	3425.29 	488.28
2.945 	731.339 	3438.38 	485.431
2.955 	782.043 	3453.24 	476.598
2.965 	906.38 	3470.26 	471.318
2.975 	1016.99 	3490.72 	470.947
2.985 	1109.04 	3513.61 	470.724
2.995 	1188.27 	3537.59 	469.292
3.005 	1246.44 	3560.55 	460.814
3.015 	1269.17 	3576.67 	432.45
3.025 	1268.14 	3576.75 	373.943
3.035 	1283.73 	3565.42 	331.894
3.045 	1397.29 	3560.04 	327.102
3.055 	1498.22 	3564.65 	328.147
3.065 	1592.38 	3575.14 	331.757
3.075 	1706.45 	3592.42 	345.413
3.085 	1796.83 	3614.33 	351.178
3.095 	1857.12 	3634.14 	351.274
3.105 	1903.87 	3652.11 	351.271
3.115 	1945.17 	3668.75 	351.27
3.125 	1979.09 	3684.2 	351.256
3.135 	2001.03 	3698.49 	351.188
3.145 	2010.43 	3711.52 	350.897
3.155 	2008.84 	3722.9 	349.697
3.165 	1937.69 	3731.94 	347.711
3.175 	1699.56 	3739.88 	347.706
3.185 	1519.25 	3747.41 	346.946
3.195 	1414.97 	3754.7 	345.222
3.205 	1353.23 	3761.61 	343.153
3.215 	1299.58 	3767.14 	337.419
3.225 	1249.82 	3769.81 	325.451
3.235 	1239.24 	3769.49 	304.347
3.245 	1247.34 	3765.03 	280.934
3.255 	1328.55 	3761.53 	274.1
3.265 	1442.24 	3763.94 	274.462
3.275 	1548.8 	3770.27 	275.47
3.285 	1655.01 	3778.97 	277.856
3.295 	1758.68 	3788.67 	278.357
3.305 	1862.64 	3798.35 	278.805
3.315 	1965.54 	3807.82 	279.063
3.325 	2058.02 	3816.89 	278.865
3.335 	2134.98 	3825.42 	280.058
3.345 	2190.38 	3833.27 	280.346
3.355 	2223.87 	3840.42 	280.641
3.365 	2237.94 	3846.88 	280.885
3.375 	2240.65 	3852.8 	281.222
3.385 	2233.14 	3858.28 	281.399
3.395 	2127.85 	3863.59 	281.889
3.405 	1892.45 	3868.65 	282.212
3.415 	1697.55 	3873.25 	282.146
3.425 	1558.25 	3877.57 	282.707
3.435 	1469.9 	3881.7 	282.726
3.445 	1423.73 	3885.72 	282.906
3.455 	1406.87 	3889.65 	283.092
3.465 	1405.16 	3893.46 	283.487
3.475 	1419.02 	3897.04 	283.437
3.485 	1541.55 	3900.4 	283.638
3.495 	1712.19 	3903.73 	284.123
3.505 	1863.62 	3906.98 	284.113
3.515 	1985.38 	3910.09 	284.553
3.525 	2075.89 	3912.98 	285.047
3.535 	2140.85 	3915.55 	284.84
3.545 	2191.71 	3917.86 	285.343
3.555 	2235.94 	3919.91 	285.259
3.565 	2281.2 	3921.75 	285.748
3.575 	2328.63 	3923.39 	285.672
3.585 	2378.56 	3924.93 	286.106
3.595 	2427.29 	3926.36 	286.304
3.605 	2471.17 	3927.73 	286.354
3.615 	2508.31 	3929.06 	286.895
3.625 	2536.07 	3930.31 	286.791
3.635 	2556.07 	3931.54 	287.418
3.645 	2567.57 	3932.69 	287.246
3.655 	2574.79 	3933.82 	287.99
3.665 	2576.79 	3934.84 	287.72
3.675 	2580.94 	3935.81 	288.365
3.685 	2618.19 	3936.6 	288.181
3.695 	2822.17 	3937.12 	288.466
3.705 	3112.03 	3937.48 	288.864
3.715 	3436.94 	3937.77 	288.453
3.725 	3790.5 	3938.09 	289.687
3.735 	4149.84 	3938.28 	288.679
3.745 	4508.06 	3938.58 	290.204
3.755 	4836.04 	3938.65 	288.997
3.765 	5134.37 	3938.88 	290.676
3.775 	5378.98 	3938.79 	289.381
3.785 	5581.54 	3938.82 	290.82
3.795 	5728.84 	3938.56 	289.884
3.805 	5838.36 	3938.32 	290.873
3.815 	5908.85 	3937.85 	290.292
3.825 	5955.71 	3937.29 	290.938
3.835 	5980.22 	3936.54 	290.601
3.845 	5992.38 	3935.59 	290.936
3.855 	5996.35 	3934.45 	290.843
3.865 	5996.1 	3932.97 	290.777
3.875 	5997.59 	3931.28 	291.006
3.885 	5995.44 	3929.16 	290.473
3.895 	5998.65 	3926.89 	291.183
3.905 	5994.72 	3924.02 	289.978
3.915 	5999.27 	3921.03 	291.086
3.925 	5994.84 	3917.33 	289.552